
     Program BANDS v.7.2 starts on 24Jun2024 at 20:43:32 

     This program is part of the open-source Quantum ESPRESSO suite
     for quantum simulation of materials; please cite
         "P. Giannozzi et al., J. Phys.:Condens. Matter 21 395502 (2009);
         "P. Giannozzi et al., J. Phys.:Condens. Matter 29 465901 (2017);
         "P. Giannozzi et al., J. Chem. Phys. 152 154105 (2020);
          URL http://www.quantum-espresso.org", 
     in publications or presentations arising from this work. More details at
     http://www.quantum-espresso.org/quote

     Parallel version (MPI), running on     6 processors

     MPI processes distributed on     1 nodes
     R & G space division:  proc/nbgrp/npool/nimage =       6
     2496 MiB available memory on the printing compute node when the environment starts


     Reading xml data from directory:

     ../tmp/stanene.save/

     IMPORTANT: XC functional enforced from input :
     Exchange-correlation= PBE
                           (   1   4   3   4   0   0   0)
     Any further DFT definition will be discarded
     Please, verify this is what you really want


     Parallelization info
     --------------------
     sticks:   dense  smooth     PW     G-vecs:    dense   smooth      PW
     Min         431     214     61                75909    26818    4015
     Max         432     215     62                75924    26841    4025
     Sum        2587    1285    367               455489   160939   24117

     Using Slab Decomposition


     negative rho (up, down):  8.722E-05 0.000E+00
     Reading collected, re-writing distributed wavefunctions
     high-symmetry point:  0.0000 0.0000 0.0000   x coordinate   0.0000
     high-symmetry point:  0.6667 0.0000 0.0000   x coordinate   0.6667
     high-symmetry point:  0.5000 0.2887 0.0000   x coordinate   1.0000
     high-symmetry point:  0.0000 0.0000 0.0000   x coordinate   1.5774

     Plottable bands (eV) written to file stanene.bands.gnu
     Bands written to file stanene.bands

 **************************************************************************

                    xk=(   0.00000,   0.00000,   0.00000  )

     point group D_6h(6/mmm)
     there are 12 classes
     the character table:

       E     2C6   2C3   C2    3C2'  3C2'' i     2S3   2S6   s_h   3s_d  3s_v 
A_1g   1.00  1.00  1.00  1.00  1.00  1.00  1.00  1.00  1.00  1.00  1.00  1.00
A_2g   1.00  1.00  1.00  1.00 -1.00 -1.00  1.00  1.00  1.00  1.00 -1.00 -1.00
B_1g   1.00 -1.00  1.00 -1.00  1.00 -1.00  1.00 -1.00  1.00 -1.00  1.00 -1.00
B_2g   1.00 -1.00  1.00 -1.00 -1.00  1.00  1.00 -1.00  1.00 -1.00 -1.00  1.00
E_1g   2.00  1.00 -1.00 -2.00  0.00  0.00  2.00  1.00 -1.00 -2.00  0.00  0.00
E_2g   2.00 -1.00 -1.00  2.00  0.00  0.00  2.00 -1.00 -1.00  2.00  0.00  0.00
A_1u   1.00  1.00  1.00  1.00  1.00  1.00 -1.00 -1.00 -1.00 -1.00 -1.00 -1.00
A_2u   1.00  1.00  1.00  1.00 -1.00 -1.00 -1.00 -1.00 -1.00 -1.00  1.00  1.00
B_1u   1.00 -1.00  1.00 -1.00  1.00 -1.00 -1.00  1.00 -1.00  1.00 -1.00  1.00
B_2u   1.00 -1.00  1.00 -1.00 -1.00  1.00 -1.00  1.00 -1.00  1.00  1.00 -1.00
E_1u   2.00  1.00 -1.00 -2.00  0.00  0.00 -2.00 -1.00  1.00  2.00  0.00  0.00
E_2u   2.00 -1.00 -1.00  2.00  0.00  0.00 -2.00  1.00  1.00 -2.00  0.00  0.00

     the symmetry operations in each class and the name of the first element:

     E        1
                                                                 
     2C6      5    6
                                                                 
     2C3      7    8
                                                                 
     C2       2
                                                                 
     3C2'     4   12   11
                                                                 
     3C2''    3    9   10
                                                                 
     i       13
                                                                 
     2S3     17   18
                                                                 
     2S6     19   20
                                                                 
     s_h     14
                                                                 
     3s_d    16   24   23
                                                                 
     3s_v    15   21   22
                                                                 

     Band symmetry, D_6h(6/mmm) point group:

     e(  1 -  1) =    -24.11278  eV     1   --> A_1g           
     e(  2 -  3) =    -24.09613  eV     2   --> E_2g           
     e(  4 -  5) =    -23.99546  eV     2   --> E_2u           
     e(  6 -  7) =    -23.83418  eV     2   --> E_1u           
     e(  8 -  9) =    -23.76488  eV     2   --> E_1g           
     e( 10 - 10) =    -23.70747  eV     1   --> B_2u           
     e( 11 - 11) =    -12.20569  eV     1   --> A_1g           
     e( 12 - 12) =     -4.29149  eV     1   --> A_2u           
     e( 13 - 13) =     -3.69910  eV     1   --> B_2u           
     e( 14 - 15) =     -3.35085  eV     2   --> E_2g           
     e( 16 - 17) =      0.66625  eV     2   --> E_1u           
     e( 18 - 18) =      1.00895  eV     1   --> A_1g           
     e( 19 - 19) =      1.99558  eV     1   --> A_2u           
     e( 20 - 20) =      2.28222  eV     1   --> A_1g           
     e( 21 - 21) =      2.33059  eV     1   --> B_1g           
     e( 22 - 22) =      3.42847  eV     1   --> A_2u           
     e( 23 - 23) =      3.61656  eV     1   --> A_1g           
     e( 24 - 24) =      3.98990  eV     1   --> A_1g           
     e( 25 - 25) =      5.72796  eV     1   --> A_2u           
     e( 26 - 26) =      6.04909  eV     1   --> A_1g           
     e( 27 - 28) =      6.10984  eV     2   --> E_2u           
     e( 29 - 30) =      7.38292  eV     2   --> E_1g           
     e( 31 - 31) =      8.17898  eV     1   --> A_2u           
     e( 32 - 32) =      9.18015  eV     1   --> A_2u           
     e( 33 - 33) =      9.27886  eV     1   --> A_1g           
     e( 34 - 35) =      9.59790  eV     2   --> E_2g           
     e( 36 - 36) =      9.91266  eV     1   --> B_2u           
     e( 37 - 38) =     10.36886  eV     2   --> E_1u           
     e( 39 - 39) =     10.80264  eV     1   --> A_1g           
     e( 40 - 40) =     10.96843  eV     1   --> B_1g           
     e( 41 - 42) =     11.24820  eV     2   --> E_2u           
     e( 43 - 44) =     11.36545  eV     2   --> E_2g           
     e( 45 - 46) =     11.39344  eV     2   --> E_1g           
     e( 47 - 47) =     11.40603  eV     1   --> B_2u           
     e( 48 - 49) =     11.45247  eV     2   --> E_1u           
     e( 50 - 50) =     11.51536  eV     1   --> A_2u           
     e( 51 - 51) =     11.55638  eV     1   --> A_1g           
     e( 52 - 52) =     12.46148  eV     1   --> B_1g           
     e( 53 - 54) =     12.55377  eV     2   --> E_2g           
     e( 55 - 56) =     12.69095  eV     2   --> E_2u           
     e( 57 - 57) =     12.74733  eV     1   --> B_2u           
     e( 58 - 58) =     12.77440  eV     1   --> A_2u           
     e( 59 - 60) =     12.84233  eV     2   --> E_1g           

 **************************************************************************

 **************************************************************************

                    xk=(   0.01667,   0.00000,   0.00000  )

     point group C_2v (mm2) 
     there are  4 classes
     the character table:

       E     C2    s_v   s_v' 
A_1    1.00  1.00  1.00  1.00
A_2    1.00  1.00 -1.00 -1.00
B_1    1.00 -1.00  1.00 -1.00
B_2    1.00 -1.00 -1.00  1.00

     the symmetry operations in each class and the name of the first element:

     E        1
                                                                 
     C2       2
                                                                 
     s_v      4
                                                                 
     s_v'     3
                                                                 

     Band symmetry, C_2v (mm2)  point group:

     e(  1 -  1) =    -24.11287  eV     1   --> A_1  D_1  S_1  
     e(  2 -  2) =    -24.09669  eV     1   --> A_1  D_1  S_1  
     e(  3 -  3) =    -24.09655  eV     1   --> B_2  D_4  S_4  
     e(  4 -  4) =    -23.99551  eV     1   --> B_1  D_3  S_3  
     e(  5 -  5) =    -23.99538  eV     1   --> A_2  D_2  S_2  
     e(  6 -  7) =    -23.83366  eV     2   --> A_1  D_1  S_1  
     e(  6 -  7) =    -23.83366  eV     2   --> B_2  D_4  S_4  
     e(  8 -  8) =    -23.76497  eV     1   --> B_1  D_3  S_3  
     e(  9 -  9) =    -23.76483  eV     1   --> A_2  D_2  S_2  
     e( 10 - 10) =    -23.70745  eV     1   --> B_2  D_4  S_4  
     e( 11 - 11) =    -12.20391  eV     1   --> A_1  D_1  S_1  
     e( 12 - 12) =     -4.28965  eV     1   --> B_1  D_3  S_3  
     e( 13 - 13) =     -3.79185  eV     1   --> B_2  D_4  S_4  
     e( 14 - 14) =     -3.35495  eV     1   --> A_1  D_1  S_1  
     e( 15 - 15) =     -3.26021  eV     1   --> B_2  D_4  S_4  
     e( 16 - 16) =      0.66368  eV     1   --> A_1  D_1  S_1  
     e( 17 - 17) =      0.67396  eV     1   --> B_2  D_4  S_4  
     e( 18 - 18) =      1.01181  eV     1   --> A_1  D_1  S_1  
     e( 19 - 19) =      1.99741  eV     1   --> B_1  D_3  S_3  
     e( 20 - 20) =      2.28418  eV     1   --> A_1  D_1  S_1  
     e( 21 - 21) =      2.32180  eV     1   --> A_2  D_2  S_2  
     e( 22 - 22) =      3.43024  eV     1   --> B_1  D_3  S_3  
     e( 23 - 23) =      3.62028  eV     1   --> A_1  D_1  S_1  
     e( 24 - 24) =      3.99902  eV     1   --> A_1  D_1  S_1  
     e( 25 - 25) =      5.72882  eV     1   --> B_1  D_3  S_3  
     e( 26 - 26) =      6.05092  eV     1   --> A_1  D_1  S_1  
     e( 27 - 27) =      6.10052  eV     1   --> B_1  D_3  S_3  
     e( 28 - 28) =      6.11084  eV     1   --> A_2  D_2  S_2  
     e( 29 - 29) =      7.36343  eV     1   --> B_1  D_3  S_3  
     e( 30 - 30) =      7.39564  eV     1   --> A_2  D_2  S_2  
     e( 31 - 31) =      8.21145  eV     1   --> B_1  D_3  S_3  
     e( 32 - 32) =      9.18451  eV     1   --> B_1  D_3  S_3  
     e( 33 - 33) =      9.28020  eV     1   --> A_1  D_1  S_1  
     e( 34 - 34) =      9.50236  eV     1   --> B_2  D_4  S_4  
     e( 35 - 35) =      9.57765  eV     1   --> A_1  D_1  S_1  
     e( 36 - 36) =      9.98806  eV     1   --> B_2  D_4  S_4  
     e( 37 - 37) =     10.32747  eV     1   --> A_1  D_1  S_1  
     e( 38 - 38) =     10.39266  eV     1   --> B_2  D_4  S_4  
     e( 39 - 39) =     10.86317  eV     1   --> A_1  D_1  S_1  
     e( 40 - 40) =     10.87209  eV     1   --> A_2  D_2  S_2  
     e( 41 - 41) =     11.14564  eV     1   --> B_1  D_3  S_3  
     e( 42 - 42) =     11.16794  eV     1   --> B_2  D_4  S_4  
     e( 43 - 43) =     11.23498  eV     1   --> A_1  D_1  S_1  
     e( 44 - 44) =     11.25192  eV     1   --> A_2  D_2  S_2  
     e( 45 - 45) =     11.35306  eV     1   --> B_1  D_3  S_3  
     e( 46 - 46) =     11.43752  eV     1   --> A_1  D_1  S_1  
     e( 47 - 47) =     11.43856  eV     1   --> B_2  D_4  S_4  
     e( 48 - 48) =     11.49008  eV     1   --> A_2  D_2  S_2  
     e( 49 - 49) =     11.62347  eV     1   --> B_2  D_4  S_4  
     e( 50 - 50) =     11.66362  eV     1   --> B_1  D_3  S_3  
     e( 51 - 51) =     11.71248  eV     1   --> A_1  D_1  S_1  
     e( 52 - 52) =     12.35392  eV     1   --> A_2  D_2  S_2  
     e( 53 - 53) =     12.42211  eV     1   --> B_2  D_4  S_4  
     e( 54 - 54) =     12.50772  eV     1   --> A_1  D_1  S_1  
     e( 55 - 55) =     12.58115  eV     1   --> B_1  D_3  S_3  
     e( 56 - 56) =     12.70888  eV     1   --> A_2  D_2  S_2  
     e( 57 - 57) =     12.73716  eV     1   --> B_1  D_3  S_3  
     e( 58 - 58) =     12.81795  eV     1   --> B_2  D_4  S_4  
     e( 59 - 59) =     12.84187  eV     1   --> A_1  D_1  S_1  
     e( 60 - 60) =     12.93892  eV     1   --> A_2  D_2  S_2  

 **************************************************************************

 **************************************************************************

                    xk=(   0.03333,   0.00000,   0.00000  )

     Band symmetry, C_2v (mm2)  point group:

     e(  1 -  1) =    -24.11318  eV     1   --> A_1  D_1  S_1  
     e(  2 -  2) =    -24.09830  eV     1   --> A_1  D_1  S_1  
     e(  3 -  3) =    -24.09778  eV     1   --> B_2  D_4  S_4  
     e(  4 -  4) =    -23.99565  eV     1   --> B_1  D_3  S_3  
     e(  5 -  5) =    -23.99514  eV     1   --> A_2  D_2  S_2  
     e(  6 -  6) =    -23.83213  eV     1   --> A_1  D_1  S_1  
     e(  7 -  7) =    -23.83174  eV     1   --> B_2  D_4  S_4  
     e(  8 -  8) =    -23.76526  eV     1   --> B_1  D_3  S_3  
     e(  9 -  9) =    -23.76470  eV     1   --> A_2  D_2  S_2  
     e( 10 - 10) =    -23.70740  eV     1   --> B_2  D_4  S_4  
     e( 11 - 11) =    -12.19858  eV     1   --> A_1  D_1  S_1  
     e( 12 - 12) =     -4.28413  eV     1   --> B_1  D_3  S_3  
     e( 13 - 13) =     -3.96634  eV     1   --> B_2  D_4  S_4  
     e( 14 - 14) =     -3.36723  eV     1   --> A_1  D_1  S_1  
     e( 15 - 15) =     -3.09210  eV     1   --> B_2  D_4  S_4  
     e( 16 - 16) =      0.65635  eV     1   --> A_1  D_1  S_1  
     e( 17 - 17) =      0.69713  eV     1   --> B_2  D_4  S_4  
     e( 18 - 18) =      1.02019  eV     1   --> A_1  D_1  S_1  
     e( 19 - 19) =      2.00290  eV     1   --> B_1  D_3  S_3  
     e( 20 - 20) =      2.29004  eV     1   --> A_1  D_1  S_1  
     e( 21 - 21) =      2.29568  eV     1   --> A_2  D_2  S_2  
     e( 22 - 22) =      3.43555  eV     1   --> B_1  D_3  S_3  
     e( 23 - 23) =      3.63096  eV     1   --> A_1  D_1  S_1  
     e( 24 - 24) =      4.02662  eV     1   --> A_1  D_1  S_1  
     e( 25 - 25) =      5.73100  eV     1   --> B_1  D_3  S_3  
     e( 26 - 26) =      6.05640  eV     1   --> A_1  D_1  S_1  
     e( 27 - 27) =      6.07287  eV     1   --> B_1  D_3  S_3  
     e( 28 - 28) =      6.11394  eV     1   --> A_2  D_2  S_2  
     e( 29 - 29) =      7.31505  eV     1   --> B_1  D_3  S_3  
     e( 30 - 30) =      7.43344  eV     1   --> A_2  D_2  S_2  
     e( 31 - 31) =      8.29831  eV     1   --> B_1  D_3  S_3  
     e( 32 - 32) =      9.19808  eV     1   --> B_1  D_3  S_3  
     e( 33 - 33) =      9.28376  eV     1   --> A_1  D_1  S_1  
     e( 34 - 34) =      9.32455  eV     1   --> B_2  D_4  S_4  
     e( 35 - 35) =      9.51709  eV     1   --> A_1  D_1  S_1  
     e( 36 - 36) =     10.09461  eV     1   --> B_2  D_4  S_4  
     e( 37 - 37) =     10.25000  eV     1   --> A_1  D_1  S_1  
     e( 38 - 38) =     10.47276  eV     1   --> B_2  D_4  S_4  
     e( 39 - 39) =     10.68837  eV     1   --> A_2  D_2  S_2  
     e( 40 - 40) =     10.94983  eV     1   --> B_1  D_3  S_3  
     e( 41 - 41) =     10.95330  eV     1   --> B_2  D_4  S_4  
     e( 42 - 42) =     10.95872  eV     1   --> A_1  D_1  S_1  
     e( 43 - 43) =     11.07700  eV     1   --> A_1  D_1  S_1  
     e( 44 - 44) =     11.25617  eV     1   --> A_2  D_2  S_2  
     e( 45 - 45) =     11.34814  eV     1   --> B_1  D_3  S_3  
     e( 46 - 46) =     11.44489  eV     1   --> B_2  D_4  S_4  
     e( 47 - 47) =     11.44708  eV     1   --> A_1  D_1  S_1  
     e( 48 - 48) =     11.68028  eV     1   --> A_2  D_2  S_2  
     e( 49 - 49) =     11.84965  eV     1   --> B_2  D_4  S_4  
     e( 50 - 50) =     11.88013  eV     1   --> B_1  D_3  S_3  
     e( 51 - 51) =     11.93209  eV     1   --> A_1  D_1  S_1  
     e( 52 - 52) =     12.16689  eV     1   --> A_2  D_2  S_2  
     e( 53 - 53) =     12.22573  eV     1   --> B_2  D_4  S_4  
     e( 54 - 54) =     12.38086  eV     1   --> A_1  D_1  S_1  
     e( 55 - 55) =     12.38570  eV     1   --> B_1  D_3  S_3  
     e( 56 - 56) =     12.72211  eV     1   --> A_2  D_2  S_2  
     e( 57 - 57) =     12.73926  eV     1   --> B_1  D_3  S_3  
     e( 58 - 58) =     12.80151  eV     1   --> A_1  D_1  S_1  
     e( 59 - 59) =     12.84475  eV     1   --> B_2  D_4  S_4  
     e( 60 - 60) =     13.02626  eV     1   --> B_1  D_3  S_3  

 **************************************************************************

 **************************************************************************

                    xk=(   0.05000,   0.00000,   0.00000  )

     Band symmetry, C_2v (mm2)  point group:

     e(  1 -  1) =    -24.11388  eV     1   --> A_1  D_1  S_1  
     e(  2 -  2) =    -24.10074  eV     1   --> A_1  D_1  S_1  
     e(  3 -  3) =    -24.09979  eV     1   --> B_2  D_4  S_4  
     e(  4 -  4) =    -23.99588  eV     1   --> B_1  D_3  S_3  
     e(  5 -  5) =    -23.99473  eV     1   --> A_2  D_2  S_2  
     e(  6 -  6) =    -23.82963  eV     1   --> A_1  D_1  S_1  
     e(  7 -  7) =    -23.82875  eV     1   --> B_2  D_4  S_4  
     e(  8 -  8) =    -23.76573  eV     1   --> B_1  D_3  S_3  
     e(  9 -  9) =    -23.76447  eV     1   --> A_2  D_2  S_2  
     e( 10 - 10) =    -23.70730  eV     1   --> B_2  D_4  S_4  
     e( 11 - 11) =    -12.18970  eV     1   --> A_1  D_1  S_1  
     e( 12 - 12) =     -4.27492  eV     1   --> B_1  D_3  S_3  
     e( 13 - 13) =     -4.15894  eV     1   --> B_2  D_4  S_4  
     e( 14 - 14) =     -3.38759  eV     1   --> A_1  D_1  S_1  
     e( 15 - 15) =     -2.91033  eV     1   --> B_2  D_4  S_4  
     e( 16 - 16) =      0.64529  eV     1   --> A_1  D_1  S_1  
     e( 17 - 17) =      0.73595  eV     1   --> B_2  D_4  S_4  
     e( 18 - 18) =      1.03358  eV     1   --> A_1  D_1  S_1  
     e( 19 - 19) =      2.01203  eV     1   --> B_1  D_3  S_3  
     e( 20 - 20) =      2.25295  eV     1   --> A_2  D_2  S_2  
     e( 21 - 21) =      2.29980  eV     1   --> A_1  D_1  S_1  
     e( 22 - 22) =      3.44439  eV     1   --> B_1  D_3  S_3  
     e( 23 - 23) =      3.64748  eV     1   --> A_1  D_1  S_1  
     e( 24 - 24) =      4.07322  eV     1   --> A_1  D_1  S_1  
     e( 25 - 25) =      5.73294  eV     1   --> B_1  D_3  S_3  
     e( 26 - 26) =      6.02848  eV     1   --> B_1  D_3  S_3  
     e( 27 - 27) =      6.06554  eV     1   --> A_1  D_1  S_1  
     e( 28 - 28) =      6.11935  eV     1   --> A_2  D_2  S_2  
     e( 29 - 29) =      7.25649  eV     1   --> B_1  D_3  S_3  
     e( 30 - 30) =      7.49536  eV     1   --> A_2  D_2  S_2  
     e( 31 - 31) =      8.41903  eV     1   --> B_1  D_3  S_3  
     e( 32 - 32) =      9.12962  eV     1   --> B_2  D_4  S_4  
     e( 33 - 33) =      9.22248  eV     1   --> B_1  D_3  S_3  
     e( 34 - 34) =      9.28599  eV     1   --> A_1  D_1  S_1  
     e( 35 - 35) =      9.42197  eV     1   --> A_1  D_1  S_1  
     e( 36 - 36) =     10.16263  eV     1   --> B_2  D_4  S_4  
     e( 37 - 37) =     10.18104  eV     1   --> A_1  D_1  S_1  
     e( 38 - 38) =     10.48683  eV     1   --> A_2  D_2  S_2  
     e( 39 - 39) =     10.58696  eV     1   --> B_2  D_4  S_4  
     e( 40 - 40) =     10.74313  eV     1   --> B_1  D_3  S_3  
     e( 41 - 41) =     10.77120  eV     1   --> B_2  D_4  S_4  
     e( 42 - 42) =     10.80624  eV     1   --> A_1  D_1  S_1  
     e( 43 - 43) =     11.18880  eV     1   --> A_1  D_1  S_1  
     e( 44 - 44) =     11.26023  eV     1   --> A_2  D_2  S_2  
     e( 45 - 45) =     11.35405  eV     1   --> B_1  D_3  S_3  
     e( 46 - 46) =     11.45462  eV     1   --> B_2  D_4  S_4  
     e( 47 - 47) =     11.47385  eV     1   --> A_1  D_1  S_1  
     e( 48 - 48) =     11.87257  eV     1   --> A_2  D_2  S_2  
     e( 49 - 49) =     11.98399  eV     1   --> B_2  D_4  S_4  
     e( 50 - 50) =     11.99234  eV     1   --> A_2  D_2  S_2  
     e( 51 - 51) =     12.10555  eV     1   --> B_1  D_3  S_3  
     e( 52 - 52) =     12.12258  eV     1   --> B_2  D_4  S_4  
     e( 53 - 53) =     12.15951  eV     1   --> A_1  D_1  S_1  
     e( 54 - 54) =     12.18364  eV     1   --> B_1  D_3  S_3  
     e( 55 - 55) =     12.21340  eV     1   --> A_1  D_1  S_1  
     e( 56 - 56) =     12.73514  eV     1   --> A_2  D_2  S_2  
     e( 57 - 57) =     12.74887  eV     1   --> B_1  D_3  S_3  
     e( 58 - 58) =     12.79407  eV     1   --> A_1  D_1  S_1  
     e( 59 - 59) =     12.85855  eV     1   --> B_2  D_4  S_4  
     e( 60 - 60) =     13.06077  eV     1   --> B_1  D_3  S_3  

 **************************************************************************

 **************************************************************************

                    xk=(   0.06667,   0.00000,   0.00000  )

     Band symmetry, C_2v (mm2)  point group:

     e(  1 -  1) =    -24.11537  eV     1   --> A_1  D_1  S_1  
     e(  2 -  2) =    -24.10350  eV     1   --> A_1  D_1  S_1  
     e(  3 -  3) =    -24.10248  eV     1   --> B_2  D_4  S_4  
     e(  4 -  4) =    -23.99620  eV     1   --> B_1  D_3  S_3  
     e(  5 -  5) =    -23.99416  eV     1   --> A_2  D_2  S_2  
     e(  6 -  6) =    -23.82627  eV     1   --> A_1  D_1  S_1  
     e(  7 -  7) =    -23.82471  eV     1   --> B_2  D_4  S_4  
     e(  8 -  8) =    -23.76638  eV     1   --> B_1  D_3  S_3  
     e(  9 -  9) =    -23.76415  eV     1   --> A_2  D_2  S_2  
     e( 10 - 10) =    -23.70715  eV     1   --> B_2  D_4  S_4  
     e( 11 - 11) =    -12.17728  eV     1   --> A_1  D_1  S_1  
     e( 12 - 12) =     -4.35714  eV     1   --> B_2  D_4  S_4  
     e( 13 - 13) =     -4.26205  eV     1   --> B_1  D_3  S_3  
     e( 14 - 14) =     -3.41588  eV     1   --> A_1  D_1  S_1  
     e( 15 - 15) =     -2.72770  eV     1   --> B_2  D_4  S_4  
     e( 16 - 16) =      0.63190  eV     1   --> A_1  D_1  S_1  
     e( 17 - 17) =      0.79067  eV     1   --> B_2  D_4  S_4  
     e( 18 - 18) =      1.05137  eV     1   --> A_1  D_1  S_1  
     e( 19 - 19) =      2.02481  eV     1   --> B_1  D_3  S_3  
     e( 20 - 20) =      2.19474  eV     1   --> A_2  D_2  S_2  
     e( 21 - 21) =      2.31342  eV     1   --> A_1  D_1  S_1  
     e( 22 - 22) =      3.45672  eV     1   --> B_1  D_3  S_3  
     e( 23 - 23) =      3.66851  eV     1   --> A_1  D_1  S_1  
     e( 24 - 24) =      4.13918  eV     1   --> A_1  D_1  S_1  
     e( 25 - 25) =      5.73017  eV     1   --> B_1  D_3  S_3  
     e( 26 - 26) =      5.97245  eV     1   --> B_1  D_3  S_3  
     e( 27 - 27) =      6.07834  eV     1   --> A_1  D_1  S_1  
     e( 28 - 28) =      6.12737  eV     1   --> A_2  D_2  S_2  
     e( 29 - 29) =      7.20161  eV     1   --> B_1  D_3  S_3  
     e( 30 - 30) =      7.57995  eV     1   --> A_2  D_2  S_2  
     e( 31 - 31) =      8.55549  eV     1   --> B_1  D_3  S_3  
     e( 32 - 32) =      8.93066  eV     1   --> B_2  D_4  S_4  
     e( 33 - 33) =      9.24737  eV     1   --> A_1  D_1  S_1  
     e( 34 - 34) =      9.26096  eV     1   --> B_1  D_3  S_3  
     e( 35 - 35) =      9.33968  eV     1   --> A_1  D_1  S_1  
     e( 36 - 36) =     10.12701  eV     1   --> A_1  D_1  S_1  
     e( 37 - 37) =     10.20297  eV     1   --> B_2  D_4  S_4  
     e( 38 - 38) =     10.28211  eV     1   --> A_2  D_2  S_2  
     e( 39 - 39) =     10.48795  eV     1   --> B_2  D_4  S_4  
     e( 40 - 40) =     10.53742  eV     1   --> B_1  D_3  S_3  
     e( 41 - 41) =     10.61449  eV     1   --> A_1  D_1  S_1  
     e( 42 - 42) =     10.84326  eV     1   --> B_2  D_4  S_4  
     e( 43 - 43) =     11.26150  eV     1   --> A_2  D_2  S_2  
     e( 44 - 44) =     11.32304  eV     1   --> A_1  D_1  S_1  
     e( 45 - 45) =     11.36380  eV     1   --> B_1  D_3  S_3  
     e( 46 - 46) =     11.46771  eV     1   --> B_2  D_4  S_4  
     e( 47 - 47) =     11.54265  eV     1   --> A_1  D_1  S_1  
     e( 48 - 48) =     11.75863  eV     1   --> A_2  D_2  S_2  
     e( 49 - 49) =     11.80779  eV     1   --> B_2  D_4  S_4  
     e( 50 - 50) =     11.97974  eV     1   --> B_1  D_3  S_3  
     e( 51 - 51) =     12.03650  eV     1   --> A_1  D_1  S_1  
     e( 52 - 52) =     12.13680  eV     1   --> A_2  D_2  S_2  
     e( 53 - 53) =     12.33741  eV     1   --> B_1  D_3  S_3  
     e( 54 - 54) =     12.33949  eV     1   --> B_2  D_4  S_4  
     e( 55 - 55) =     12.38809  eV     1   --> A_1  D_1  S_1  
     e( 56 - 56) =     12.75292  eV     1   --> A_2  D_2  S_2  
     e( 57 - 57) =     12.76379  eV     1   --> B_1  D_3  S_3  
     e( 58 - 58) =     12.80570  eV     1   --> A_1  D_1  S_1  
     e( 59 - 59) =     12.87373  eV     1   --> B_2  D_4  S_4  
     e( 60 - 60) =     13.08374  eV     1   --> B_1  D_3  S_3  

 **************************************************************************

 **************************************************************************

                    xk=(   0.08333,   0.00000,   0.00000  )

     Band symmetry, C_2v (mm2)  point group:

     e(  1 -  1) =    -24.11832  eV     1   --> A_1  D_1  S_1  
     e(  2 -  3) =    -24.10582  eV     2   --> A_1  D_1  S_1  
     e(  2 -  3) =    -24.10582  eV     2   --> B_2  D_4  S_4  
     e(  4 -  4) =    -23.99661  eV     1   --> B_1  D_3  S_3  
     e(  5 -  5) =    -23.99342  eV     1   --> A_2  D_2  S_2  
     e(  6 -  6) =    -23.82215  eV     1   --> A_1  D_1  S_1  
     e(  7 -  7) =    -23.81971  eV     1   --> B_2  D_4  S_4  
     e(  8 -  8) =    -23.76722  eV     1   --> B_1  D_3  S_3  
     e(  9 -  9) =    -23.76374  eV     1   --> A_2  D_2  S_2  
     e( 10 - 10) =    -23.70693  eV     1   --> B_2  D_4  S_4  
     e( 11 - 11) =    -12.16131  eV     1   --> A_1  D_1  S_1  
     e( 12 - 12) =     -4.55728  eV     1   --> B_2  D_4  S_4  
     e( 13 - 13) =     -4.24552  eV     1   --> B_1  D_3  S_3  
     e( 14 - 14) =     -3.45186  eV     1   --> A_1  D_1  S_1  
     e( 15 - 15) =     -2.54815  eV     1   --> B_2  D_4  S_4  
     e( 16 - 16) =      0.61766  eV     1   --> A_1  D_1  S_1  
     e( 17 - 17) =      0.86159  eV     1   --> B_2  D_4  S_4  
     e( 18 - 18) =      1.07304  eV     1   --> A_1  D_1  S_1  
     e( 19 - 19) =      2.04121  eV     1   --> B_1  D_3  S_3  
     e( 20 - 20) =      2.12244  eV     1   --> A_2  D_2  S_2  
     e( 21 - 21) =      2.33087  eV     1   --> A_1  D_1  S_1  
     e( 22 - 22) =      3.47251  eV     1   --> B_1  D_3  S_3  
     e( 23 - 23) =      3.69297  eV     1   --> A_1  D_1  S_1  
     e( 24 - 24) =      4.22432  eV     1   --> A_1  D_1  S_1  
     e( 25 - 25) =      5.71070  eV     1   --> B_1  D_3  S_3  
     e( 26 - 26) =      5.91851  eV     1   --> B_1  D_3  S_3  
     e( 27 - 27) =      6.09477  eV     1   --> A_1  D_1  S_1  
     e( 28 - 28) =      6.13830  eV     1   --> A_2  D_2  S_2  
     e( 29 - 29) =      7.15741  eV     1   --> B_1  D_3  S_3  
     e( 30 - 30) =      7.68547  eV     1   --> A_2  D_2  S_2  
     e( 31 - 31) =      8.69276  eV     1   --> B_1  D_3  S_3  
     e( 32 - 32) =      8.73159  eV     1   --> B_2  D_4  S_4  
     e( 33 - 33) =      9.11160  eV     1   --> A_1  D_1  S_1  
     e( 34 - 34) =      9.31883  eV     1   --> B_1  D_3  S_3  
     e( 35 - 35) =      9.33698  eV     1   --> A_1  D_1  S_1  
     e( 36 - 36) =     10.07440  eV     1   --> A_1  D_1  S_1  
     e( 37 - 37) =     10.07826  eV     1   --> A_2  D_2  S_2  
     e( 38 - 38) =     10.23120  eV     1   --> B_2  D_4  S_4  
     e( 39 - 39) =     10.29025  eV     1   --> B_2  D_4  S_4  
     e( 40 - 40) =     10.33587  eV     1   --> B_1  D_3  S_3  
     e( 41 - 41) =     10.43931  eV     1   --> A_1  D_1  S_1  
     e( 42 - 42) =     11.02667  eV     1   --> B_2  D_4  S_4  
     e( 43 - 43) =     11.24913  eV     1   --> A_2  D_2  S_2  
     e( 44 - 44) =     11.37407  eV     1   --> B_1  D_3  S_3  
     e( 45 - 45) =     11.39142  eV     1   --> A_1  D_1  S_1  
     e( 46 - 46) =     11.48030  eV     1   --> B_2  D_4  S_4  
     e( 47 - 47) =     11.58590  eV     1   --> A_2  D_2  S_2  
     e( 48 - 48) =     11.63177  eV     1   --> B_2  D_4  S_4  
     e( 49 - 49) =     11.66818  eV     1   --> A_1  D_1  S_1  
     e( 50 - 50) =     11.78355  eV     1   --> B_1  D_3  S_3  
     e( 51 - 51) =     11.88207  eV     1   --> A_1  D_1  S_1  
     e( 52 - 52) =     12.35838  eV     1   --> A_2  D_2  S_2  
     e( 53 - 53) =     12.56475  eV     1   --> B_1  D_3  S_3  
     e( 54 - 54) =     12.57914  eV     1   --> B_2  D_4  S_4  
     e( 55 - 55) =     12.60496  eV     1   --> A_1  D_1  S_1  
     e( 56 - 56) =     12.78017  eV     1   --> A_2  D_2  S_2  
     e( 57 - 57) =     12.78622  eV     1   --> B_1  D_3  S_3  
     e( 58 - 58) =     12.84102  eV     1   --> A_1  D_1  S_1  
     e( 59 - 59) =     12.89274  eV     1   --> B_2  D_4  S_4  
     e( 60 - 60) =     13.10652  eV     1   --> B_1  D_3  S_3  

 **************************************************************************

 **************************************************************************

                    xk=(   0.10000,   0.00000,   0.00000  )

     Band symmetry, C_2v (mm2)  point group:

     e(  1 -  1) =    -24.12308  eV     1   --> A_1  D_1  S_1  
     e(  2 -  2) =    -24.10956  eV     1   --> B_2  D_4  S_4  
     e(  3 -  3) =    -24.10722  eV     1   --> A_1  D_1  S_1  
     e(  4 -  4) =    -23.99710  eV     1   --> B_1  D_3  S_3  
     e(  5 -  5) =    -23.99253  eV     1   --> A_2  D_2  S_2  
     e(  6 -  6) =    -23.81740  eV     1   --> A_1  D_1  S_1  
     e(  7 -  7) =    -23.81390  eV     1   --> B_2  D_4  S_4  
     e(  8 -  8) =    -23.76825  eV     1   --> B_1  D_3  S_3  
     e(  9 -  9) =    -23.76325  eV     1   --> A_2  D_2  S_2  
     e( 10 - 10) =    -23.70661  eV     1   --> B_2  D_4  S_4  
     e( 11 - 11) =    -12.14181  eV     1   --> A_1  D_1  S_1  
     e( 12 - 12) =     -4.75778  eV     1   --> B_2  D_4  S_4  
     e( 13 - 13) =     -4.22536  eV     1   --> B_1  D_3  S_3  
     e( 14 - 14) =     -3.49526  eV     1   --> A_1  D_1  S_1  
     e( 15 - 15) =     -2.37362  eV     1   --> B_2  D_4  S_4  
     e( 16 - 16) =      0.60400  eV     1   --> A_1  D_1  S_1  
     e( 17 - 17) =      0.94903  eV     1   --> B_2  D_4  S_4  
     e( 18 - 18) =      1.09822  eV     1   --> A_1  D_1  S_1  
     e( 19 - 19) =      2.03763  eV     1   --> A_2  D_2  S_2  
     e( 20 - 20) =      2.06123  eV     1   --> B_1  D_3  S_3  
     e( 21 - 21) =      2.35213  eV     1   --> A_1  D_1  S_1  
     e( 22 - 22) =      3.49170  eV     1   --> B_1  D_3  S_3  
     e( 23 - 23) =      3.72026  eV     1   --> A_1  D_1  S_1  
     e( 24 - 24) =      4.32784  eV     1   --> A_1  D_1  S_1  
     e( 25 - 25) =      5.65534  eV     1   --> B_1  D_3  S_3  
     e( 26 - 26) =      5.88865  eV     1   --> B_1  D_3  S_3  
     e( 27 - 27) =      6.11485  eV     1   --> A_1  D_1  S_1  
     e( 28 - 28) =      6.15236  eV     1   --> A_2  D_2  S_2  
     e( 29 - 29) =      7.12625  eV     1   --> B_1  D_3  S_3  
     e( 30 - 30) =      7.81006  eV     1   --> A_2  D_2  S_2  
     e( 31 - 31) =      8.53407  eV     1   --> B_2  D_4  S_4  
     e( 32 - 32) =      8.81735  eV     1   --> B_1  D_3  S_3  
     e( 33 - 33) =      8.94846  eV     1   --> A_1  D_1  S_1  
     e( 34 - 34) =      9.35284  eV     1   --> A_1  D_1  S_1  
     e( 35 - 35) =      9.40229  eV     1   --> B_1  D_3  S_3  
     e( 36 - 36) =      9.87681  eV     1   --> A_2  D_2  S_2  
     e( 37 - 37) =      9.99376  eV     1   --> A_1  D_1  S_1  
     e( 38 - 38) =     10.08355  eV     1   --> B_2  D_4  S_4  
     e( 39 - 39) =     10.14132  eV     1   --> B_1  D_3  S_3  
     e( 40 - 40) =     10.26197  eV     1   --> B_2  D_4  S_4  
     e( 41 - 41) =     10.30686  eV     1   --> A_1  D_1  S_1  
     e( 42 - 42) =     11.16528  eV     1   --> B_2  D_4  S_4  
     e( 43 - 43) =     11.18821  eV     1   --> A_2  D_2  S_2  
     e( 44 - 44) =     11.37371  eV     1   --> B_1  D_3  S_3  
     e( 45 - 45) =     11.41312  eV     1   --> A_1  D_1  S_1  
     e( 46 - 46) =     11.45806  eV     1   --> B_2  D_4  S_4  
     e( 47 - 47) =     11.46520  eV     1   --> A_2  D_2  S_2  
     e( 48 - 48) =     11.55907  eV     1   --> B_2  D_4  S_4  
     e( 49 - 49) =     11.60496  eV     1   --> B_1  D_3  S_3  
     e( 50 - 50) =     11.64350  eV     1   --> A_1  D_1  S_1  
     e( 51 - 51) =     11.93565  eV     1   --> A_1  D_1  S_1  
     e( 52 - 52) =     12.56336  eV     1   --> A_2  D_2  S_2  
     e( 53 - 53) =     12.75194  eV     1   --> B_1  D_3  S_3  
     e( 54 - 54) =     12.75234  eV     1   --> A_1  D_1  S_1  
     e( 55 - 55) =     12.81751  eV     1   --> B_2  D_4  S_4  
     e( 56 - 56) =     12.83379  eV     1   --> A_2  D_2  S_2  
     e( 57 - 57) =     12.84561  eV     1   --> B_1  D_3  S_3  
     e( 58 - 58) =     12.92110  eV     1   --> B_2  D_4  S_4  
     e( 59 - 59) =     12.95423  eV     1   --> A_1  D_1  S_1  
     e( 60 - 60) =     13.13826  eV     1   --> B_1  D_3  S_3  

 **************************************************************************

 **************************************************************************

                    xk=(   0.11667,   0.00000,   0.00000  )

     Band symmetry, C_2v (mm2)  point group:

     e(  1 -  1) =    -24.12930  eV     1   --> A_1  D_1  S_1  
     e(  2 -  2) =    -24.11373  eV     1   --> B_2  D_4  S_4  
     e(  3 -  3) =    -24.10791  eV     1   --> A_1  D_1  S_1  
     e(  4 -  4) =    -23.99768  eV     1   --> B_1  D_3  S_3  
     e(  5 -  5) =    -23.99147  eV     1   --> A_2  D_2  S_2  
     e(  6 -  6) =    -23.81214  eV     1   --> A_1  D_1  S_1  
     e(  7 -  7) =    -23.80742  eV     1   --> B_2  D_4  S_4  
     e(  8 -  8) =    -23.76946  eV     1   --> B_1  D_3  S_3  
     e(  9 -  9) =    -23.76268  eV     1   --> A_2  D_2  S_2  
     e( 10 - 10) =    -23.70617  eV     1   --> B_2  D_4  S_4  
     e( 11 - 11) =    -12.11879  eV     1   --> A_1  D_1  S_1  
     e( 12 - 12) =     -4.95774  eV     1   --> B_2  D_4  S_4  
     e( 13 - 13) =     -4.20157  eV     1   --> B_1  D_3  S_3  
     e( 14 - 14) =     -3.54572  eV     1   --> A_1  D_1  S_1  
     e( 15 - 15) =     -2.20526  eV     1   --> B_2  D_4  S_4  
     e( 16 - 16) =      0.59216  eV     1   --> A_1  D_1  S_1  
     e( 17 - 17) =      1.05320  eV     1   --> B_2  D_4  S_4  
     e( 18 - 18) =      1.12669  eV     1   --> A_1  D_1  S_1  
     e( 19 - 19) =      1.94193  eV     1   --> A_2  D_2  S_2  
     e( 20 - 20) =      2.08483  eV     1   --> B_1  D_3  S_3  
     e( 21 - 21) =      2.37719  eV     1   --> A_1  D_1  S_1  
     e( 22 - 22) =      3.51419  eV     1   --> B_1  D_3  S_3  
     e( 23 - 23) =      3.75019  eV     1   --> A_1  D_1  S_1  
     e( 24 - 24) =      4.44846  eV     1   --> A_1  D_1  S_1  
     e( 25 - 25) =      5.56278  eV     1   --> B_1  D_3  S_3  
     e( 26 - 26) =      5.88755  eV     1   --> B_1  D_3  S_3  
     e( 27 - 27) =      6.13857  eV     1   --> A_1  D_1  S_1  
     e( 28 - 28) =      6.16971  eV     1   --> A_2  D_2  S_2  
     e( 29 - 29) =      7.10790  eV     1   --> B_1  D_3  S_3  
     e( 30 - 30) =      7.95184  eV     1   --> A_2  D_2  S_2  
     e( 31 - 31) =      8.33892  eV     1   --> B_2  D_4  S_4  
     e( 32 - 32) =      8.77662  eV     1   --> A_1  D_1  S_1  
     e( 33 - 33) =      8.91936  eV     1   --> B_1  D_3  S_3  
     e( 34 - 34) =      9.37439  eV     1   --> A_1  D_1  S_1  
     e( 35 - 35) =      9.51027  eV     1   --> B_1  D_3  S_3  
     e( 36 - 36) =      9.67852  eV     1   --> A_2  D_2  S_2  
     e( 37 - 37) =      9.86103  eV     1   --> A_1  D_1  S_1  
     e( 38 - 38) =      9.88245  eV     1   --> B_2  D_4  S_4  
     e( 39 - 39) =      9.96178  eV     1   --> B_1  D_3  S_3  
     e( 40 - 40) =     10.23691  eV     1   --> A_1  D_1  S_1  
     e( 41 - 41) =     10.28978  eV     1   --> B_2  D_4  S_4  
     e( 42 - 42) =     11.05136  eV     1   --> A_2  D_2  S_2  
     e( 43 - 43) =     11.10537  eV     1   --> B_2  D_4  S_4  
     e( 44 - 44) =     11.30559  eV     1   --> B_1  D_3  S_3  
     e( 45 - 45) =     11.37014  eV     1   --> A_1  D_1  S_1  
     e( 46 - 46) =     11.42655  eV     1   --> A_2  D_2  S_2  
     e( 47 - 47) =     11.49382  eV     1   --> B_2  D_4  S_4  
     e( 48 - 48) =     11.50177  eV     1   --> B_1  D_3  S_3  
     e( 49 - 49) =     11.55139  eV     1   --> A_1  D_1  S_1  
     e( 50 - 50) =     11.64159  eV     1   --> B_2  D_4  S_4  
     e( 51 - 51) =     12.13037  eV     1   --> A_1  D_1  S_1  
     e( 52 - 52) =     12.69469  eV     1   --> A_2  D_2  S_2  
     e( 53 - 53) =     12.81028  eV     1   --> A_1  D_1  S_1  
     e( 54 - 54) =     12.81061  eV     1   --> B_1  D_3  S_3  
     e( 55 - 55) =     12.92948  eV     1   --> B_2  D_4  S_4  
     e( 56 - 56) =     12.96640  eV     1   --> A_2  D_2  S_2  
     e( 57 - 57) =     12.99393  eV     1   --> B_1  D_3  S_3  
     e( 58 - 58) =     13.07945  eV     1   --> B_2  D_4  S_4  
     e( 59 - 59) =     13.16101  eV     1   --> A_1  D_1  S_1  
     e( 60 - 60) =     13.21243  eV     1   --> B_1  D_3  S_3  

 **************************************************************************

 **************************************************************************

                    xk=(   0.13333,   0.00000,   0.00000  )

     Band symmetry, C_2v (mm2)  point group:

     e(  1 -  1) =    -24.13655  eV     1   --> A_1  D_1  S_1  
     e(  2 -  2) =    -24.11819  eV     1   --> B_2  D_4  S_4  
     e(  3 -  3) =    -24.10822  eV     1   --> A_1  D_1  S_1  
     e(  4 -  4) =    -23.99834  eV     1   --> B_1  D_3  S_3  
     e(  5 -  5) =    -23.99025  eV     1   --> A_2  D_2  S_2  
     e(  6 -  6) =    -23.80649  eV     1   --> A_1  D_1  S_1  
     e(  7 -  7) =    -23.80043  eV     1   --> B_2  D_4  S_4  
     e(  8 -  8) =    -23.77084  eV     1   --> B_1  D_3  S_3  
     e(  9 -  9) =    -23.76202  eV     1   --> A_2  D_2  S_2  
     e( 10 - 10) =    -23.70556  eV     1   --> B_2  D_4  S_4  
     e( 11 - 11) =    -12.09226  eV     1   --> A_1  D_1  S_1  
     e( 12 - 12) =     -5.15653  eV     1   --> B_2  D_4  S_4  
     e( 13 - 13) =     -4.17419  eV     1   --> B_1  D_3  S_3  
     e( 14 - 14) =     -3.60283  eV     1   --> A_1  D_1  S_1  
     e( 15 - 15) =     -2.04382  eV     1   --> B_2  D_4  S_4  
     e( 16 - 16) =      0.58320  eV     1   --> A_1  D_1  S_1  
     e( 17 - 17) =      1.15834  eV     1   --> A_1  D_1  S_1  
     e( 18 - 18) =      1.17422  eV     1   --> B_2  D_4  S_4  
     e( 19 - 19) =      1.83694  eV     1   --> A_2  D_2  S_2  
     e( 20 - 20) =      2.11198  eV     1   --> B_1  D_3  S_3  
     e( 21 - 21) =      2.40601  eV     1   --> A_1  D_1  S_1  
     e( 22 - 22) =      3.53988  eV     1   --> B_1  D_3  S_3  
     e( 23 - 23) =      3.78278  eV     1   --> A_1  D_1  S_1  
     e( 24 - 24) =      4.58459  eV     1   --> A_1  D_1  S_1  
     e( 25 - 25) =      5.44823  eV     1   --> B_1  D_3  S_3  
     e( 26 - 26) =      5.90343  eV     1   --> B_1  D_3  S_3  
     e( 27 - 27) =      6.16590  eV     1   --> A_1  D_1  S_1  
     e( 28 - 28) =      6.19038  eV     1   --> A_2  D_2  S_2  
     e( 29 - 29) =      7.10104  eV     1   --> B_1  D_3  S_3  
     e( 30 - 30) =      8.10903  eV     1   --> A_2  D_2  S_2  
     e( 31 - 31) =      8.14660  eV     1   --> B_2  D_4  S_4  
     e( 32 - 32) =      8.60130  eV     1   --> A_1  D_1  S_1  
     e( 33 - 33) =      8.99639  eV     1   --> B_1  D_3  S_3  
     e( 34 - 34) =      9.39988  eV     1   --> A_1  D_1  S_1  
     e( 35 - 35) =      9.48384  eV     1   --> A_2  D_2  S_2  
     e( 36 - 36) =      9.59319  eV     1   --> B_1  D_3  S_3  
     e( 37 - 37) =      9.68415  eV     1   --> B_2  D_4  S_4  
     e( 38 - 38) =      9.69417  eV     1   --> A_1  D_1  S_1  
     e( 39 - 39) =      9.84706  eV     1   --> B_1  D_3  S_3  
     e( 40 - 40) =     10.20778  eV     1   --> A_1  D_1  S_1  
     e( 41 - 41) =     10.31989  eV     1   --> B_2  D_4  S_4  
     e( 42 - 42) =     10.87787  eV     1   --> A_2  D_2  S_2  
     e( 43 - 43) =     10.94022  eV     1   --> B_2  D_4  S_4  
     e( 44 - 44) =     11.14660  eV     1   --> B_1  D_3  S_3  
     e( 45 - 45) =     11.23735  eV     1   --> A_1  D_1  S_1  
     e( 46 - 46) =     11.43126  eV     1   --> A_2  D_2  S_2  
     e( 47 - 47) =     11.49768  eV     1   --> B_1  D_3  S_3  
     e( 48 - 48) =     11.54132  eV     1   --> B_2  D_4  S_4  
     e( 49 - 49) =     11.54422  eV     1   --> A_1  D_1  S_1  
     e( 50 - 50) =     11.82862  eV     1   --> B_2  D_4  S_4  
     e( 51 - 51) =     12.33466  eV     1   --> A_1  D_1  S_1  
     e( 52 - 52) =     12.74529  eV     1   --> A_2  D_2  S_2  
     e( 53 - 53) =     12.84431  eV     1   --> B_1  D_3  S_3  
     e( 54 - 54) =     12.84916  eV     1   --> A_1  D_1  S_1  
     e( 55 - 55) =     12.96183  eV     1   --> B_2  D_4  S_4  
     e( 56 - 56) =     13.06317  eV     1   --> B_1  D_3  S_3  
     e( 57 - 57) =     13.17942  eV     1   --> A_2  D_2  S_2  
     e( 58 - 58) =     13.24161  eV     1   --> B_2  D_4  S_4  
     e( 59 - 59) =     13.32740  eV     1   --> A_2  D_2  S_2  
     e( 60 - 60) =     13.35398  eV     1   --> A_1  D_1  S_1  

 **************************************************************************

 **************************************************************************

                    xk=(   0.15000,   0.00000,   0.00000  )

     Band symmetry, C_2v (mm2)  point group:

     e(  1 -  1) =    -24.14452  eV     1   --> A_1  D_1  S_1  
     e(  2 -  2) =    -24.12282  eV     1   --> B_2  D_4  S_4  
     e(  3 -  3) =    -24.10834  eV     1   --> A_1  D_1  S_1  
     e(  4 -  4) =    -23.99908  eV     1   --> B_1  D_3  S_3  
     e(  5 -  5) =    -23.98887  eV     1   --> A_2  D_2  S_2  
     e(  6 -  6) =    -23.80056  eV     1   --> A_1  D_1  S_1  
     e(  7 -  7) =    -23.79310  eV     1   --> B_2  D_4  S_4  
     e(  8 -  8) =    -23.77241  eV     1   --> B_1  D_3  S_3  
     e(  9 -  9) =    -23.76130  eV     1   --> A_2  D_2  S_2  
     e( 10 - 10) =    -23.70473  eV     1   --> B_2  D_4  S_4  
     e( 11 - 11) =    -12.06223  eV     1   --> A_1  D_1  S_1  
     e( 12 - 12) =     -5.35371  eV     1   --> B_2  D_4  S_4  
     e( 13 - 13) =     -4.14325  eV     1   --> B_1  D_3  S_3  
     e( 14 - 14) =     -3.66612  eV     1   --> A_1  D_1  S_1  
     e( 15 - 15) =     -1.88971  eV     1   --> B_2  D_4  S_4  
     e( 16 - 16) =      0.57801  eV     1   --> A_1  D_1  S_1  
     e( 17 - 17) =      1.19315  eV     1   --> A_1  D_1  S_1  
     e( 18 - 18) =      1.31199  eV     1   --> B_2  D_4  S_4  
     e( 19 - 19) =      1.72417  eV     1   --> A_2  D_2  S_2  
     e( 20 - 20) =      2.14265  eV     1   --> B_1  D_3  S_3  
     e( 21 - 21) =      2.43860  eV     1   --> A_1  D_1  S_1  
     e( 22 - 22) =      3.56858  eV     1   --> B_1  D_3  S_3  
     e( 23 - 23) =      3.81818  eV     1   --> A_1  D_1  S_1  
     e( 24 - 24) =      4.73459  eV     1   --> A_1  D_1  S_1  
     e( 25 - 25) =      5.32232  eV     1   --> B_1  D_3  S_3  
     e( 26 - 26) =      5.92876  eV     1   --> B_1  D_3  S_3  
     e( 27 - 27) =      6.19683  eV     1   --> A_1  D_1  S_1  
     e( 28 - 28) =      6.21436  eV     1   --> A_2  D_2  S_2  
     e( 29 - 29) =      7.10405  eV     1   --> B_1  D_3  S_3  
     e( 30 - 30) =      7.95741  eV     1   --> B_2  D_4  S_4  
     e( 31 - 31) =      8.27993  eV     1   --> A_2  D_2  S_2  
     e( 32 - 32) =      8.42522  eV     1   --> A_1  D_1  S_1  
     e( 33 - 33) =      9.05009  eV     1   --> B_1  D_3  S_3  
     e( 34 - 34) =      9.29315  eV     1   --> A_2  D_2  S_2  
     e( 35 - 35) =      9.42696  eV     1   --> A_1  D_1  S_1  
     e( 36 - 36) =      9.48925  eV     1   --> B_2  D_4  S_4  
     e( 37 - 37) =      9.51305  eV     1   --> B_1  D_3  S_3  
     e( 38 - 38) =      9.51731  eV     1   --> A_1  D_1  S_1  
     e( 39 - 39) =      9.93155  eV     1   --> B_1  D_3  S_3  
     e( 40 - 40) =     10.19310  eV     1   --> A_1  D_1  S_1  
     e( 41 - 41) =     10.35266  eV     1   --> B_2  D_4  S_4  
     e( 42 - 42) =     10.69520  eV     1   --> A_2  D_2  S_2  
     e( 43 - 43) =     10.75880  eV     1   --> B_2  D_4  S_4  
     e( 44 - 44) =     10.96798  eV     1   --> B_1  D_3  S_3  
     e( 45 - 45) =     11.08392  eV     1   --> A_1  D_1  S_1  
     e( 46 - 46) =     11.45213  eV     1   --> A_2  D_2  S_2  
     e( 47 - 47) =     11.52233  eV     1   --> B_1  D_3  S_3  
     e( 48 - 48) =     11.56719  eV     1   --> A_1  D_1  S_1  
     e( 49 - 49) =     11.57935  eV     1   --> B_2  D_4  S_4  
     e( 50 - 50) =     12.04838  eV     1   --> B_2  D_4  S_4  
     e( 51 - 51) =     12.52284  eV     1   --> A_1  D_1  S_1  
     e( 52 - 52) =     12.75648  eV     1   --> A_2  D_2  S_2  
     e( 53 - 53) =     12.87874  eV     1   --> B_1  D_3  S_3  
     e( 54 - 54) =     12.88972  eV     1   --> A_1  D_1  S_1  
     e( 55 - 55) =     12.99131  eV     1   --> B_2  D_4  S_4  
     e( 56 - 56) =     13.06395  eV     1   --> B_1  D_3  S_3  
     e( 57 - 57) =     13.10836  eV     1   --> B_2  D_4  S_4  
     e( 58 - 58) =     13.16760  eV     1   --> A_2  D_2  S_2  
     e( 59 - 59) =     13.33415  eV     1   --> A_1  D_1  S_1  
     e( 60 - 60) =     13.42584  eV     1   --> A_2  D_2  S_2  

 **************************************************************************

 **************************************************************************

                    xk=(   0.16667,   0.00000,   0.00000  )

     Band symmetry, C_2v (mm2)  point group:

     e(  1 -  1) =    -24.15303  eV     1   --> A_1  D_1  S_1  
     e(  2 -  2) =    -24.12755  eV     1   --> B_2  D_4  S_4  
     e(  3 -  3) =    -24.10834  eV     1   --> A_1  D_1  S_1  
     e(  4 -  4) =    -23.99989  eV     1   --> B_1  D_3  S_3  
     e(  5 -  5) =    -23.98733  eV     1   --> A_2  D_2  S_2  
     e(  6 -  6) =    -23.79446  eV     1   --> A_1  D_1  S_1  
     e(  7 -  7) =    -23.78562  eV     1   --> B_2  D_4  S_4  
     e(  8 -  8) =    -23.77415  eV     1   --> B_1  D_3  S_3  
     e(  9 -  9) =    -23.76050  eV     1   --> A_2  D_2  S_2  
     e( 10 - 10) =    -23.70360  eV     1   --> B_2  D_4  S_4  
     e( 11 - 11) =    -12.02872  eV     1   --> A_1  D_1  S_1  
     e( 12 - 12) =     -5.54892  eV     1   --> B_2  D_4  S_4  
     e( 13 - 13) =     -4.10878  eV     1   --> B_1  D_3  S_3  
     e( 14 - 14) =     -3.73509  eV     1   --> A_1  D_1  S_1  
     e( 15 - 15) =     -1.74302  eV     1   --> B_2  D_4  S_4  
     e( 16 - 16) =      0.57725  eV     1   --> A_1  D_1  S_1  
     e( 17 - 17) =      1.23112  eV     1   --> A_1  D_1  S_1  
     e( 18 - 18) =      1.46621  eV     1   --> B_2  D_4  S_4  
     e( 19 - 19) =      1.60501  eV     1   --> A_2  D_2  S_2  
     e( 20 - 20) =      2.17678  eV     1   --> B_1  D_3  S_3  
     e( 21 - 21) =      2.47494  eV     1   --> A_1  D_1  S_1  
     e( 22 - 22) =      3.60005  eV     1   --> B_1  D_3  S_3  
     e( 23 - 23) =      3.85653  eV     1   --> A_1  D_1  S_1  
     e( 24 - 24) =      4.89678  eV     1   --> A_1  D_1  S_1  
     e( 25 - 25) =      5.19077  eV     1   --> B_1  D_3  S_3  
     e( 26 - 26) =      5.96049  eV     1   --> B_1  D_3  S_3  
     e( 27 - 27) =      6.23134  eV     1   --> A_1  D_1  S_1  
     e( 28 - 28) =      6.24152  eV     1   --> A_2  D_2  S_2  
     e( 29 - 29) =      7.11544  eV     1   --> B_1  D_3  S_3  
     e( 30 - 30) =      7.77155  eV     1   --> B_2  D_4  S_4  
     e( 31 - 31) =      8.25006  eV     1   --> A_1  D_1  S_1  
     e( 32 - 32) =      8.46277  eV     1   --> A_2  D_2  S_2  
     e( 33 - 33) =      9.07264  eV     1   --> B_1  D_3  S_3  
     e( 34 - 34) =      9.10696  eV     1   --> A_2  D_2  S_2  
     e( 35 - 35) =      9.29793  eV     1   --> B_2  D_4  S_4  
     e( 36 - 36) =      9.32880  eV     1   --> A_1  D_1  S_1  
     e( 37 - 37) =      9.37969  eV     1   --> B_1  D_3  S_3  
     e( 38 - 38) =      9.46631  eV     1   --> A_1  D_1  S_1  
     e( 39 - 39) =     10.11051  eV     1   --> B_1  D_3  S_3  
     e( 40 - 40) =     10.17790  eV     1   --> A_1  D_1  S_1  
     e( 41 - 41) =     10.38800  eV     1   --> B_2  D_4  S_4  
     e( 42 - 42) =     10.51149  eV     1   --> A_2  D_2  S_2  
     e( 43 - 43) =     10.57590  eV     1   --> B_2  D_4  S_4  
     e( 44 - 44) =     10.79038  eV     1   --> B_1  D_3  S_3  
     e( 45 - 45) =     10.93846  eV     1   --> A_1  D_1  S_1  
     e( 46 - 46) =     11.48105  eV     1   --> A_2  D_2  S_2  
     e( 47 - 47) =     11.55696  eV     1   --> B_1  D_3  S_3  
     e( 48 - 48) =     11.59910  eV     1   --> A_1  D_1  S_1  
     e( 49 - 49) =     11.61775  eV     1   --> B_2  D_4  S_4  
     e( 50 - 50) =     12.26669  eV     1   --> B_2  D_4  S_4  
     e( 51 - 51) =     12.66014  eV     1   --> A_1  D_1  S_1  
     e( 52 - 52) =     12.71857  eV     1   --> A_2  D_2  S_2  
     e( 53 - 53) =     12.91612  eV     1   --> B_1  D_3  S_3  
     e( 54 - 54) =     12.93191  eV     1   --> A_1  D_1  S_1  
     e( 55 - 55) =     12.93263  eV     1   --> B_2  D_4  S_4  
     e( 56 - 56) =     13.01236  eV     1   --> B_1  D_3  S_3  
     e( 57 - 57) =     13.04985  eV     1   --> B_2  D_4  S_4  
     e( 58 - 58) =     13.06064  eV     1   --> A_2  D_2  S_2  
     e( 59 - 59) =     13.24294  eV     1   --> A_1  D_1  S_1  
     e( 60 - 60) =     13.45390  eV     1   --> B_1  D_3  S_3  

 **************************************************************************

 **************************************************************************

                    xk=(   0.18333,   0.00000,   0.00000  )

     Band symmetry, C_2v (mm2)  point group:

     e(  1 -  1) =    -24.16192  eV     1   --> A_1  D_1  S_1  
     e(  2 -  2) =    -24.13229  eV     1   --> B_2  D_4  S_4  
     e(  3 -  3) =    -24.10828  eV     1   --> A_1  D_1  S_1  
     e(  4 -  4) =    -24.00077  eV     1   --> B_1  D_3  S_3  
     e(  5 -  5) =    -23.98563  eV     1   --> A_2  D_2  S_2  
     e(  6 -  6) =    -23.78828  eV     1   --> A_1  D_1  S_1  
     e(  7 -  7) =    -23.77817  eV     1   --> B_2  D_4  S_4  
     e(  8 -  8) =    -23.77606  eV     1   --> B_1  D_3  S_3  
     e(  9 -  9) =    -23.75963  eV     1   --> A_2  D_2  S_2  
     e( 10 - 10) =    -23.70205  eV     1   --> B_2  D_4  S_4  
     e( 11 - 11) =    -11.99176  eV     1   --> A_1  D_1  S_1  
     e( 12 - 12) =     -5.74186  eV     1   --> B_2  D_4  S_4  
     e( 13 - 13) =     -4.07081  eV     1   --> B_1  D_3  S_3  
     e( 14 - 14) =     -3.80919  eV     1   --> A_1  D_1  S_1  
     e( 15 - 15) =     -1.60359  eV     1   --> B_2  D_4  S_4  
     e( 16 - 16) =      0.58144  eV     1   --> A_1  D_1  S_1  
     e( 17 - 17) =      1.27228  eV     1   --> A_1  D_1  S_1  
     e( 18 - 18) =      1.48070  eV     1   --> A_2  D_2  S_2  
     e( 19 - 19) =      1.63636  eV     1   --> B_2  D_4  S_4  
     e( 20 - 20) =      2.21429  eV     1   --> B_1  D_3  S_3  
     e( 21 - 21) =      2.51504  eV     1   --> A_1  D_1  S_1  
     e( 22 - 22) =      3.63390  eV     1   --> B_1  D_3  S_3  
     e( 23 - 23) =      3.89799  eV     1   --> A_1  D_1  S_1  
     e( 24 - 24) =      5.05715  eV     1   --> B_1  D_3  S_3  
     e( 25 - 25) =      5.06950  eV     1   --> A_1  D_1  S_1  
     e( 26 - 26) =      5.99734  eV     1   --> B_1  D_3  S_3  
     e( 27 - 27) =      6.26938  eV     1   --> A_1  D_1  S_1  
     e( 28 - 28) =      6.27171  eV     1   --> A_2  D_2  S_2  
     e( 29 - 29) =      7.13394  eV     1   --> B_1  D_3  S_3  
     e( 30 - 30) =      7.58915  eV     1   --> B_2  D_4  S_4  
     e( 31 - 31) =      8.07698  eV     1   --> A_1  D_1  S_1  
     e( 32 - 32) =      8.65435  eV     1   --> A_2  D_2  S_2  
     e( 33 - 33) =      8.92738  eV     1   --> A_2  D_2  S_2  
     e( 34 - 34) =      9.02546  eV     1   --> B_1  D_3  S_3  
     e( 35 - 35) =      9.11028  eV     1   --> B_2  D_4  S_4  
     e( 36 - 36) =      9.14840  eV     1   --> A_1  D_1  S_1  
     e( 37 - 37) =      9.30163  eV     1   --> B_1  D_3  S_3  
     e( 38 - 38) =      9.50152  eV     1   --> A_1  D_1  S_1  
     e( 39 - 39) =     10.15021  eV     1   --> A_1  D_1  S_1  
     e( 40 - 40) =     10.30444  eV     1   --> B_1  D_3  S_3  
     e( 41 - 41) =     10.32953  eV     1   --> A_2  D_2  S_2  
     e( 42 - 42) =     10.38640  eV     1   --> B_2  D_4  S_4  
     e( 43 - 43) =     10.43456  eV     1   --> B_2  D_4  S_4  
     e( 44 - 44) =     10.62597  eV     1   --> B_1  D_3  S_3  
     e( 45 - 45) =     10.81370  eV     1   --> A_1  D_1  S_1  
     e( 46 - 46) =     11.51517  eV     1   --> A_2  D_2  S_2  
     e( 47 - 47) =     11.59828  eV     1   --> B_1  D_3  S_3  
     e( 48 - 48) =     11.63600  eV     1   --> A_1  D_1  S_1  
     e( 49 - 49) =     11.65876  eV     1   --> B_2  D_4  S_4  
     e( 50 - 50) =     12.43483  eV     1   --> B_2  D_4  S_4  
     e( 51 - 51) =     12.61344  eV     1   --> A_2  D_2  S_2  
     e( 52 - 52) =     12.70513  eV     1   --> A_1  D_1  S_1  
     e( 53 - 53) =     12.83345  eV     1   --> B_2  D_4  S_4  
     e( 54 - 55) =     12.90695  eV     2   --> A_1  D_1  S_1  
     e( 54 - 55) =     12.90695  eV     2   --> B_1  D_3  S_3  
     e( 56 - 56) =     12.95795  eV     1   --> B_1  D_3  S_3  
     e( 57 - 57) =     13.02557  eV     1   --> A_2  D_2  S_2  
     e( 58 - 58) =     13.09262  eV     1   --> B_2  D_4  S_4  
     e( 59 - 59) =     13.12190  eV     1   --> A_1  D_1  S_1  
     e( 60 - 60) =     13.40269  eV     1   --> A_1  D_1  S_1  

 **************************************************************************

 **************************************************************************

                    xk=(   0.20000,   0.00000,   0.00000  )

     Band symmetry, C_2v (mm2)  point group:

     e(  1 -  1) =    -24.17108  eV     1   --> A_1  D_1  S_1  
     e(  2 -  2) =    -24.13697  eV     1   --> B_2  D_4  S_4  
     e(  3 -  3) =    -24.10820  eV     1   --> A_1  D_1  S_1  
     e(  4 -  4) =    -24.00171  eV     1   --> B_1  D_3  S_3  
     e(  5 -  5) =    -23.98378  eV     1   --> A_2  D_2  S_2  
     e(  6 -  6) =    -23.78209  eV     1   --> A_1  D_1  S_1  
     e(  7 -  7) =    -23.77814  eV     1   --> B_1  D_3  S_3  
     e(  8 -  8) =    -23.77097  eV     1   --> B_2  D_4  S_4  
     e(  9 -  9) =    -23.75871  eV     1   --> A_2  D_2  S_2  
     e( 10 - 10) =    -23.69998  eV     1   --> B_2  D_4  S_4  
     e( 11 - 11) =    -11.95137  eV     1   --> A_1  D_1  S_1  
     e( 12 - 12) =     -5.93228  eV     1   --> B_2  D_4  S_4  
     e( 13 - 13) =     -4.02939  eV     1   --> B_1  D_3  S_3  
     e( 14 - 14) =     -3.88783  eV     1   --> A_1  D_1  S_1  
     e( 15 - 15) =     -1.47097  eV     1   --> B_2  D_4  S_4  
     e( 16 - 16) =      0.59094  eV     1   --> A_1  D_1  S_1  
     e( 17 - 17) =      1.31667  eV     1   --> A_1  D_1  S_1  
     e( 18 - 18) =      1.35234  eV     1   --> A_2  D_2  S_2  
     e( 19 - 19) =      1.82169  eV     1   --> B_2  D_4  S_4  
     e( 20 - 20) =      2.25511  eV     1   --> B_1  D_3  S_3  
     e( 21 - 21) =      2.55888  eV     1   --> A_1  D_1  S_1  
     e( 22 - 22) =      3.66955  eV     1   --> B_1  D_3  S_3  
     e( 23 - 23) =      3.94266  eV     1   --> A_1  D_1  S_1  
     e( 24 - 24) =      4.92417  eV     1   --> B_1  D_3  S_3  
     e( 25 - 25) =      5.25106  eV     1   --> A_1  D_1  S_1  
     e( 26 - 26) =      6.03870  eV     1   --> B_1  D_3  S_3  
     e( 27 - 27) =      6.30467  eV     1   --> A_2  D_2  S_2  
     e( 28 - 28) =      6.31089  eV     1   --> A_1  D_1  S_1  
     e( 29 - 29) =      7.15852  eV     1   --> B_1  D_3  S_3  
     e( 30 - 30) =      7.41033  eV     1   --> B_2  D_4  S_4  
     e( 31 - 31) =      7.90695  eV     1   --> A_1  D_1  S_1  
     e( 32 - 32) =      8.73293  eV     1   --> A_2  D_2  S_2  
     e( 33 - 33) =      8.87510  eV     1   --> A_2  D_2  S_2  
     e( 34 - 34) =      8.89860  eV     1   --> B_1  D_3  S_3  
     e( 35 - 35) =      8.92634  eV     1   --> B_2  D_4  S_4  
     e( 36 - 36) =      8.96893  eV     1   --> A_1  D_1  S_1  
     e( 37 - 37) =      9.30064  eV     1   --> B_1  D_3  S_3  
     e( 38 - 38) =      9.54107  eV     1   --> A_1  D_1  S_1  
     e( 39 - 39) =     10.09808  eV     1   --> A_1  D_1  S_1  
     e( 40 - 40) =     10.15058  eV     1   --> A_2  D_2  S_2  
     e( 41 - 41) =     10.21162  eV     1   --> B_2  D_4  S_4  
     e( 42 - 42) =     10.38058  eV     1   --> B_1  D_3  S_3  
     e( 43 - 43) =     10.47231  eV     1   --> B_2  D_4  S_4  
     e( 44 - 44) =     10.59574  eV     1   --> B_1  D_3  S_3  
     e( 45 - 45) =     10.72122  eV     1   --> A_1  D_1  S_1  
     e( 46 - 46) =     11.55289  eV     1   --> A_2  D_2  S_2  
     e( 47 - 47) =     11.64574  eV     1   --> B_1  D_3  S_3  
     e( 48 - 48) =     11.67666  eV     1   --> A_1  D_1  S_1  
     e( 49 - 49) =     11.70303  eV     1   --> B_2  D_4  S_4  
     e( 50 - 50) =     12.42914  eV     1   --> B_2  D_4  S_4  
     e( 51 - 51) =     12.46854  eV     1   --> A_2  D_2  S_2  
     e( 52 - 52) =     12.65531  eV     1   --> A_1  D_1  S_1  
     e( 53 - 53) =     12.69055  eV     1   --> A_1  D_1  S_1  
     e( 54 - 54) =     12.76913  eV     1   --> B_1  D_3  S_3  
     e( 55 - 55) =     12.89785  eV     1   --> B_2  D_4  S_4  
     e( 56 - 56) =     13.00243  eV     1   --> B_1  D_3  S_3  
     e( 57 - 57) =     13.03752  eV     1   --> A_2  D_2  S_2  
     e( 58 - 58) =     13.07158  eV     1   --> A_1  D_1  S_1  
     e( 59 - 59) =     13.15637  eV     1   --> B_2  D_4  S_4  
     e( 60 - 60) =     13.42956  eV     1   --> B_1  D_3  S_3  

 **************************************************************************

 **************************************************************************

                    xk=(   0.21667,   0.00000,   0.00000  )

     Band symmetry, C_2v (mm2)  point group:

     e(  1 -  1) =    -24.18043  eV     1   --> A_1  D_1  S_1  
     e(  2 -  2) =    -24.14153  eV     1   --> B_2  D_4  S_4  
     e(  3 -  3) =    -24.10809  eV     1   --> A_1  D_1  S_1  
     e(  4 -  4) =    -24.00271  eV     1   --> B_1  D_3  S_3  
     e(  5 -  5) =    -23.98177  eV     1   --> A_2  D_2  S_2  
     e(  6 -  6) =    -23.78038  eV     1   --> B_1  D_3  S_3  
     e(  7 -  7) =    -23.77598  eV     1   --> A_1  D_1  S_1  
     e(  8 -  8) =    -23.76425  eV     1   --> B_2  D_4  S_4  
     e(  9 -  9) =    -23.75773  eV     1   --> A_2  D_2  S_2  
     e( 10 - 10) =    -23.69724  eV     1   --> B_2  D_4  S_4  
     e( 11 - 11) =    -11.90758  eV     1   --> A_1  D_1  S_1  
     e( 12 - 12) =     -6.11997  eV     1   --> B_2  D_4  S_4  
     e( 13 - 13) =     -3.98456  eV     1   --> B_1  D_3  S_3  
     e( 14 - 14) =     -3.97042  eV     1   --> A_1  D_1  S_1  
     e( 15 - 15) =     -1.34455  eV     1   --> B_2  D_4  S_4  
     e( 16 - 16) =      0.60599  eV     1   --> A_1  D_1  S_1  
     e( 17 - 17) =      1.22092  eV     1   --> A_2  D_2  S_2  
     e( 18 - 18) =      1.36433  eV     1   --> A_1  D_1  S_1  
     e( 19 - 19) =      2.02128  eV     1   --> B_2  D_4  S_4  
     e( 20 - 20) =      2.29911  eV     1   --> B_1  D_3  S_3  
     e( 21 - 21) =      2.60647  eV     1   --> A_1  D_1  S_1  
     e( 22 - 22) =      3.70605  eV     1   --> B_1  D_3  S_3  
     e( 23 - 23) =      3.99063  eV     1   --> A_1  D_1  S_1  
     e( 24 - 24) =      4.79431  eV     1   --> B_1  D_3  S_3  
     e( 25 - 25) =      5.43962  eV     1   --> A_1  D_1  S_1  
     e( 26 - 26) =      6.08425  eV     1   --> B_1  D_3  S_3  
     e( 27 - 27) =      6.34004  eV     1   --> A_2  D_2  S_2  
     e( 28 - 28) =      6.35575  eV     1   --> A_1  D_1  S_1  
     e( 29 - 29) =      7.18831  eV     1   --> B_1  D_3  S_3  
     e( 30 - 30) =      7.23517  eV     1   --> B_2  D_4  S_4  
     e( 31 - 31) =      7.74091  eV     1   --> A_1  D_1  S_1  
     e( 32 - 32) =      8.56773  eV     1   --> A_2  D_2  S_2  
     e( 33 - 33) =      8.74270  eV     1   --> B_1  D_3  S_3  
     e( 34 - 34) =      8.74616  eV     1   --> B_2  D_4  S_4  
     e( 35 - 35) =      8.79204  eV     1   --> A_1  D_1  S_1  
     e( 36 - 36) =      9.07973  eV     1   --> A_2  D_2  S_2  
     e( 37 - 37) =      9.32902  eV     1   --> B_1  D_3  S_3  
     e( 38 - 38) =      9.58375  eV     1   --> A_1  D_1  S_1  
     e( 39 - 39) =      9.97568  eV     1   --> A_2  D_2  S_2  
     e( 40 - 40) =     10.01464  eV     1   --> A_1  D_1  S_1  
     e( 41 - 41) =     10.03540  eV     1   --> B_2  D_4  S_4  
     e( 42 - 42) =     10.24309  eV     1   --> B_1  D_3  S_3  
     e( 43 - 43) =     10.51798  eV     1   --> B_2  D_4  S_4  
     e( 44 - 44) =     10.66752  eV     1   --> A_1  D_1  S_1  
     e( 45 - 45) =     10.79160  eV     1   --> B_1  D_3  S_3  
     e( 46 - 46) =     11.59247  eV     1   --> A_2  D_2  S_2  
     e( 47 - 47) =     11.69971  eV     1   --> B_1  D_3  S_3  
     e( 48 - 48) =     11.72025  eV     1   --> A_1  D_1  S_1  
     e( 49 - 49) =     11.75079  eV     1   --> B_2  D_4  S_4  
     e( 50 - 50) =     12.29991  eV     1   --> B_2  D_4  S_4  
     e( 51 - 51) =     12.31245  eV     1   --> A_2  D_2  S_2  
     e( 52 - 52) =     12.38774  eV     1   --> A_1  D_1  S_1  
     e( 53 - 53) =     12.54815  eV     1   --> A_1  D_1  S_1  
     e( 54 - 54) =     12.61675  eV     1   --> B_1  D_3  S_3  
     e( 55 - 55) =     13.04707  eV     1   --> B_2  D_4  S_4  
     e( 56 - 56) =     13.05116  eV     1   --> B_1  D_3  S_3  
     e( 57 - 57) =     13.06995  eV     1   --> A_2  D_2  S_2  
     e( 58 - 58) =     13.08597  eV     1   --> A_1  D_1  S_1  
     e( 59 - 59) =     13.26872  eV     1   --> B_2  D_4  S_4  
     e( 60 - 60) =     13.45505  eV     1   --> B_1  D_3  S_3  

 **************************************************************************

 **************************************************************************

                    xk=(   0.23333,   0.00000,   0.00000  )

     Band symmetry, C_2v (mm2)  point group:

     e(  1 -  1) =    -24.18988  eV     1   --> A_1  D_1  S_1  
     e(  2 -  2) =    -24.14590  eV     1   --> B_2  D_4  S_4  
     e(  3 -  3) =    -24.10799  eV     1   --> A_1  D_1  S_1  
     e(  4 -  4) =    -24.00376  eV     1   --> B_1  D_3  S_3  
     e(  5 -  5) =    -23.97961  eV     1   --> A_2  D_2  S_2  
     e(  6 -  6) =    -23.78278  eV     1   --> B_1  D_3  S_3  
     e(  7 -  7) =    -23.76999  eV     1   --> A_1  D_1  S_1  
     e(  8 -  8) =    -23.75821  eV     1   --> B_2  D_4  S_4  
     e(  9 -  9) =    -23.75670  eV     1   --> A_2  D_2  S_2  
     e( 10 - 10) =    -23.69368  eV     1   --> B_2  D_4  S_4  
     e( 11 - 11) =    -11.86041  eV     1   --> A_1  D_1  S_1  
     e( 12 - 12) =     -6.30475  eV     1   --> B_2  D_4  S_4  
     e( 13 - 13) =     -4.05637  eV     1   --> A_1  D_1  S_1  
     e( 14 - 14) =     -3.93639  eV     1   --> B_1  D_3  S_3  
     e( 15 - 15) =     -1.22357  eV     1   --> B_2  D_4  S_4  
     e( 16 - 16) =      0.62671  eV     1   --> A_1  D_1  S_1  
     e( 17 - 17) =      1.08726  eV     1   --> A_2  D_2  S_2  
     e( 18 - 18) =      1.41528  eV     1   --> A_1  D_1  S_1  
     e( 19 - 19) =      2.23409  eV     1   --> B_2  D_4  S_4  
     e( 20 - 20) =      2.34613  eV     1   --> B_1  D_3  S_3  
     e( 21 - 21) =      2.65781  eV     1   --> A_1  D_1  S_1  
     e( 22 - 22) =      3.74179  eV     1   --> B_1  D_3  S_3  
     e( 23 - 23) =      4.04198  eV     1   --> A_1  D_1  S_1  
     e( 24 - 24) =      4.67035  eV     1   --> B_1  D_3  S_3  
     e( 25 - 25) =      5.63303  eV     1   --> A_1  D_1  S_1  
     e( 26 - 26) =      6.13377  eV     1   --> B_1  D_3  S_3  
     e( 27 - 27) =      6.37738  eV     1   --> A_2  D_2  S_2  
     e( 28 - 28) =      6.40372  eV     1   --> A_1  D_1  S_1  
     e( 29 - 29) =      7.06375  eV     1   --> B_2  D_4  S_4  
     e( 30 - 30) =      7.22253  eV     1   --> B_1  D_3  S_3  
     e( 31 - 31) =      7.58011  eV     1   --> A_1  D_1  S_1  
     e( 32 - 32) =      8.40089  eV     1   --> A_2  D_2  S_2  
     e( 33 - 33) =      8.56973  eV     1   --> B_2  D_4  S_4  
     e( 34 - 34) =      8.58094  eV     1   --> B_1  D_3  S_3  
     e( 35 - 35) =      8.61829  eV     1   --> A_1  D_1  S_1  
     e( 36 - 36) =      9.29676  eV     1   --> A_2  D_2  S_2  
     e( 37 - 37) =      9.36323  eV     1   --> B_1  D_3  S_3  
     e( 38 - 38) =      9.62863  eV     1   --> A_1  D_1  S_1  
     e( 39 - 39) =      9.80708  eV     1   --> A_2  D_2  S_2  
     e( 40 - 40) =      9.86222  eV     1   --> B_2  D_4  S_4  
     e( 41 - 41) =      9.90408  eV     1   --> A_1  D_1  S_1  
     e( 42 - 42) =     10.08964  eV     1   --> B_1  D_3  S_3  
     e( 43 - 43) =     10.56740  eV     1   --> B_2  D_4  S_4  
     e( 44 - 44) =     10.64848  eV     1   --> A_1  D_1  S_1  
     e( 45 - 45) =     11.01426  eV     1   --> B_1  D_3  S_3  
     e( 46 - 46) =     11.63043  eV     1   --> A_2  D_2  S_2  
     e( 47 - 47) =     11.76131  eV     1   --> B_1  D_3  S_3  
     e( 48 - 48) =     11.76561  eV     1   --> A_1  D_1  S_1  
     e( 49 - 49) =     11.80214  eV     1   --> B_2  D_4  S_4  
     e( 50 - 50) =     12.06515  eV     1   --> A_1  D_1  S_1  
     e( 51 - 51) =     12.14436  eV     1   --> B_2  D_4  S_4  
     e( 52 - 52) =     12.15896  eV     1   --> A_2  D_2  S_2  
     e( 53 - 53) =     12.41923  eV     1   --> A_1  D_1  S_1  
     e( 54 - 54) =     12.46039  eV     1   --> B_1  D_3  S_3  
     e( 55 - 55) =     13.10392  eV     1   --> B_1  D_3  S_3  
     e( 56 - 56) =     13.11269  eV     1   --> A_2  D_2  S_2  
     e( 57 - 57) =     13.12163  eV     1   --> A_1  D_1  S_1  
     e( 58 - 58) =     13.14992  eV     1   --> B_2  D_4  S_4  
     e( 59 - 59) =     13.46220  eV     1   --> B_2  D_4  S_4  
     e( 60 - 60) =     13.49178  eV     1   --> B_1  D_3  S_3  

 **************************************************************************

 **************************************************************************

                    xk=(   0.25000,   0.00000,   0.00000  )

     Band symmetry, C_2v (mm2)  point group:

     e(  1 -  1) =    -24.19937  eV     1   --> A_1  D_1  S_1  
     e(  2 -  2) =    -24.15005  eV     1   --> B_2  D_4  S_4  
     e(  3 -  3) =    -24.10791  eV     1   --> A_1  D_1  S_1  
     e(  4 -  4) =    -24.00485  eV     1   --> B_1  D_3  S_3  
     e(  5 -  5) =    -23.97729  eV     1   --> A_2  D_2  S_2  
     e(  6 -  6) =    -23.78534  eV     1   --> B_1  D_3  S_3  
     e(  7 -  7) =    -23.76419  eV     1   --> A_1  D_1  S_1  
     e(  8 -  8) =    -23.75563  eV     1   --> A_2  D_2  S_2  
     e(  9 -  9) =    -23.75302  eV     1   --> B_2  D_4  S_4  
     e( 10 - 10) =    -23.68921  eV     1   --> B_2  D_4  S_4  
     e( 11 - 11) =    -11.80992  eV     1   --> A_1  D_1  S_1  
     e( 12 - 12) =     -6.48646  eV     1   --> B_2  D_4  S_4  
     e( 13 - 13) =     -4.14509  eV     1   --> A_1  D_1  S_1  
     e( 14 - 14) =     -3.88492  eV     1   --> B_1  D_3  S_3  
     e( 15 - 15) =     -1.10721  eV     1   --> B_2  D_4  S_4  
     e( 16 - 16) =      0.65316  eV     1   --> A_1  D_1  S_1  
     e( 17 - 17) =      0.95211  eV     1   --> A_2  D_2  S_2  
     e( 18 - 18) =      1.46956  eV     1   --> A_1  D_1  S_1  
     e( 19 - 19) =      2.39594  eV     1   --> B_1  D_3  S_3  
     e( 20 - 20) =      2.45902  eV     1   --> B_2  D_4  S_4  
     e( 21 - 21) =      2.71291  eV     1   --> A_1  D_1  S_1  
     e( 22 - 22) =      3.77399  eV     1   --> B_1  D_3  S_3  
     e( 23 - 23) =      4.09674  eV     1   --> A_1  D_1  S_1  
     e( 24 - 24) =      4.55607  eV     1   --> B_1  D_3  S_3  
     e( 25 - 25) =      5.82846  eV     1   --> A_1  D_1  S_1  
     e( 26 - 26) =      6.18713  eV     1   --> B_1  D_3  S_3  
     e( 27 - 27) =      6.41605  eV     1   --> A_2  D_2  S_2  
     e( 28 - 28) =      6.45430  eV     1   --> A_1  D_1  S_1  
     e( 29 - 29) =      6.89616  eV     1   --> B_2  D_4  S_4  
     e( 30 - 30) =      7.26035  eV     1   --> B_1  D_3  S_3  
     e( 31 - 31) =      7.42652  eV     1   --> A_1  D_1  S_1  
     e( 32 - 32) =      8.23911  eV     1   --> A_2  D_2  S_2  
     e( 33 - 33) =      8.39709  eV     1   --> B_2  D_4  S_4  
     e( 34 - 34) =      8.42005  eV     1   --> B_1  D_3  S_3  
     e( 35 - 35) =      8.44798  eV     1   --> A_1  D_1  S_1  
     e( 36 - 36) =      9.39237  eV     1   --> B_1  D_3  S_3  
     e( 37 - 37) =      9.49762  eV     1   --> A_2  D_2  S_2  
     e( 38 - 38) =      9.66659  eV     1   --> A_2  D_2  S_2  
     e( 39 - 39) =      9.67081  eV     1   --> A_1  D_1  S_1  
     e( 40 - 40) =      9.69243  eV     1   --> B_2  D_4  S_4  
     e( 41 - 41) =      9.78061  eV     1   --> A_1  D_1  S_1  
     e( 42 - 42) =      9.94710  eV     1   --> B_1  D_3  S_3  
     e( 43 - 43) =     10.62037  eV     1   --> B_2  D_4  S_4  
     e( 44 - 44) =     10.65376  eV     1   --> A_1  D_1  S_1  
     e( 45 - 45) =     11.23715  eV     1   --> B_1  D_3  S_3  
     e( 46 - 46) =     11.65669  eV     1   --> A_2  D_2  S_2  
     e( 47 - 47) =     11.73660  eV     1   --> A_1  D_1  S_1  
     e( 48 - 48) =     11.81084  eV     1   --> A_1  D_1  S_1  
     e( 49 - 49) =     11.83228  eV     1   --> B_1  D_3  S_3  
     e( 50 - 50) =     11.85696  eV     1   --> B_2  D_4  S_4  
     e( 51 - 51) =     11.98408  eV     1   --> B_2  D_4  S_4  
     e( 52 - 52) =     12.02192  eV     1   --> A_2  D_2  S_2  
     e( 53 - 53) =     12.28749  eV     1   --> A_1  D_1  S_1  
     e( 54 - 54) =     12.30645  eV     1   --> B_1  D_3  S_3  
     e( 55 - 55) =     13.16080  eV     1   --> B_1  D_3  S_3  
     e( 56 - 56) =     13.16207  eV     1   --> A_2  D_2  S_2  
     e( 57 - 57) =     13.16708  eV     1   --> A_1  D_1  S_1  
     e( 58 - 58) =     13.22175  eV     1   --> B_2  D_4  S_4  
     e( 59 - 59) =     13.53572  eV     1   --> B_1  D_3  S_3  
     e( 60 - 60) =     13.69685  eV     1   --> B_2  D_4  S_4  

 **************************************************************************

 **************************************************************************

                    xk=(   0.26667,   0.00000,   0.00000  )

     Band symmetry, C_2v (mm2)  point group:

     e(  1 -  1) =    -24.20882  eV     1   --> A_1  D_1  S_1  
     e(  2 -  2) =    -24.15394  eV     1   --> B_2  D_4  S_4  
     e(  3 -  3) =    -24.10785  eV     1   --> A_1  D_1  S_1  
     e(  4 -  4) =    -24.00599  eV     1   --> B_1  D_3  S_3  
     e(  5 -  5) =    -23.97483  eV     1   --> A_2  D_2  S_2  
     e(  6 -  6) =    -23.78805  eV     1   --> B_1  D_3  S_3  
     e(  7 -  7) =    -23.75862  eV     1   --> A_1  D_1  S_1  
     e(  8 -  8) =    -23.75452  eV     1   --> A_2  D_2  S_2  
     e(  9 -  9) =    -23.74876  eV     1   --> B_2  D_4  S_4  
     e( 10 - 10) =    -23.68381  eV     1   --> B_2  D_4  S_4  
     e( 11 - 11) =    -11.75613  eV     1   --> A_1  D_1  S_1  
     e( 12 - 12) =     -6.66497  eV     1   --> B_2  D_4  S_4  
     e( 13 - 13) =     -4.23598  eV     1   --> A_1  D_1  S_1  
     e( 14 - 14) =     -3.83023  eV     1   --> B_1  D_3  S_3  
     e( 15 - 15) =     -0.99461  eV     1   --> B_2  D_4  S_4  
     e( 16 - 16) =      0.68529  eV     1   --> A_1  D_1  S_1  
     e( 17 - 17) =      0.81609  eV     1   --> A_2  D_2  S_2  
     e( 18 - 18) =      1.52718  eV     1   --> A_1  D_1  S_1  
     e( 19 - 19) =      2.44823  eV     1   --> B_1  D_3  S_3  
     e( 20 - 20) =      2.69493  eV     1   --> B_2  D_4  S_4  
     e( 21 - 21) =      2.77175  eV     1   --> A_1  D_1  S_1  
     e( 22 - 22) =      3.79783  eV     1   --> B_1  D_3  S_3  
     e( 23 - 23) =      4.15495  eV     1   --> A_1  D_1  S_1  
     e( 24 - 24) =      4.45719  eV     1   --> B_1  D_3  S_3  
     e( 25 - 25) =      6.02158  eV     1   --> A_1  D_1  S_1  
     e( 26 - 26) =      6.24420  eV     1   --> B_1  D_3  S_3  
     e( 27 - 27) =      6.45514  eV     1   --> A_2  D_2  S_2  
     e( 28 - 28) =      6.50627  eV     1   --> A_1  D_1  S_1  
     e( 29 - 29) =      6.73249  eV     1   --> B_2  D_4  S_4  
     e( 30 - 30) =      7.28395  eV     1   --> A_1  D_1  S_1  
     e( 31 - 31) =      7.30070  eV     1   --> B_1  D_3  S_3  
     e( 32 - 32) =      8.08368  eV     1   --> A_2  D_2  S_2  
     e( 33 - 33) =      8.22823  eV     1   --> B_2  D_4  S_4  
     e( 34 - 34) =      8.26293  eV     1   --> B_1  D_3  S_3  
     e( 35 - 35) =      8.28139  eV     1   --> A_1  D_1  S_1  
     e( 36 - 36) =      9.40145  eV     1   --> B_1  D_3  S_3  
     e( 37 - 37) =      9.44708  eV     1   --> A_2  D_2  S_2  
     e( 38 - 38) =      9.52619  eV     1   --> B_2  D_4  S_4  
     e( 39 - 39) =      9.62041  eV     1   --> A_1  D_1  S_1  
     e( 40 - 40) =      9.74191  eV     1   --> A_1  D_1  S_1  
     e( 41 - 41) =      9.78839  eV     1   --> A_2  D_2  S_2  
     e( 42 - 42) =      9.83142  eV     1   --> B_1  D_3  S_3  
     e( 43 - 43) =     10.67407  eV     1   --> A_1  D_1  S_1  
     e( 44 - 44) =     10.67685  eV     1   --> B_2  D_4  S_4  
     e( 45 - 45) =     11.41018  eV     1   --> A_1  D_1  S_1  
     e( 46 - 46) =     11.44893  eV     1   --> B_1  D_3  S_3  
     e( 47 - 47) =     11.64082  eV     1   --> A_2  D_2  S_2  
     e( 48 - 48) =     11.82283  eV     1   --> B_2  D_4  S_4  
     e( 49 - 49) =     11.84620  eV     1   --> A_1  D_1  S_1  
     e( 50 - 50) =     11.90979  eV     1   --> B_1  D_3  S_3  
     e( 51 - 51) =     11.91664  eV     1   --> B_2  D_4  S_4  
     e( 52 - 52) =     11.93341  eV     1   --> A_2  D_2  S_2  
     e( 53 - 53) =     12.16760  eV     1   --> B_1  D_3  S_3  
     e( 54 - 54) =     12.16809  eV     1   --> A_1  D_1  S_1  
     e( 55 - 55) =     13.21654  eV     1   --> A_2  D_2  S_2  
     e( 56 - 56) =     13.21849  eV     1   --> A_1  D_1  S_1  
     e( 57 - 57) =     13.22193  eV     1   --> B_1  D_3  S_3  
     e( 58 - 58) =     13.28623  eV     1   --> B_2  D_4  S_4  
     e( 59 - 59) =     13.58482  eV     1   --> B_1  D_3  S_3  
     e( 60 - 60) =     13.76506  eV     1   --> A_1  D_1  S_1  

 **************************************************************************

 **************************************************************************

                    xk=(   0.28333,   0.00000,   0.00000  )

     Band symmetry, C_2v (mm2)  point group:

     e(  1 -  1) =    -24.21820  eV     1   --> A_1  D_1  S_1  
     e(  2 -  2) =    -24.15752  eV     1   --> B_2  D_4  S_4  
     e(  3 -  3) =    -24.10782  eV     1   --> A_1  D_1  S_1  
     e(  4 -  4) =    -24.00716  eV     1   --> B_1  D_3  S_3  
     e(  5 -  5) =    -23.97222  eV     1   --> A_2  D_2  S_2  
     e(  6 -  6) =    -23.79091  eV     1   --> B_1  D_3  S_3  
     e(  7 -  8) =    -23.75338  eV     2   --> A_1  D_1  S_1  
     e(  7 -  8) =    -23.75338  eV     2   --> A_2  D_2  S_2  
     e(  9 -  9) =    -23.74540  eV     1   --> B_2  D_4  S_4  
     e( 10 - 10) =    -23.67756  eV     1   --> B_2  D_4  S_4  
     e( 11 - 11) =    -11.69911  eV     1   --> A_1  D_1  S_1  
     e( 12 - 12) =     -6.84015  eV     1   --> B_2  D_4  S_4  
     e( 13 - 13) =     -4.32847  eV     1   --> A_1  D_1  S_1  
     e( 14 - 14) =     -3.77238  eV     1   --> B_1  D_3  S_3  
     e( 15 - 15) =     -0.88494  eV     1   --> B_2  D_4  S_4  
     e( 16 - 16) =      0.67977  eV     1   --> A_2  D_2  S_2  
     e( 17 - 17) =      0.72303  eV     1   --> A_1  D_1  S_1  
     e( 18 - 18) =      1.58817  eV     1   --> A_1  D_1  S_1  
     e( 19 - 19) =      2.50255  eV     1   --> B_1  D_3  S_3  
     e( 20 - 20) =      2.83435  eV     1   --> A_1  D_1  S_1  
     e( 21 - 21) =      2.94066  eV     1   --> B_2  D_4  S_4  
     e( 22 - 22) =      3.80571  eV     1   --> B_1  D_3  S_3  
     e( 23 - 23) =      4.21662  eV     1   --> A_1  D_1  S_1  
     e( 24 - 24) =      4.38222  eV     1   --> B_1  D_3  S_3  
     e( 25 - 25) =      6.20475  eV     1   --> A_1  D_1  S_1  
     e( 26 - 26) =      6.30486  eV     1   --> B_1  D_3  S_3  
     e( 27 - 27) =      6.49337  eV     1   --> A_2  D_2  S_2  
     e( 28 - 28) =      6.55650  eV     1   --> A_1  D_1  S_1  
     e( 29 - 29) =      6.57285  eV     1   --> B_2  D_4  S_4  
     e( 30 - 30) =      7.16090  eV     1   --> A_1  D_1  S_1  
     e( 31 - 31) =      7.34186  eV     1   --> B_1  D_3  S_3  
     e( 32 - 32) =      7.93585  eV     1   --> A_2  D_2  S_2  
     e( 33 - 33) =      8.06317  eV     1   --> B_2  D_4  S_4  
     e( 34 - 34) =      8.11198  eV     1   --> B_1  D_3  S_3  
     e( 35 - 35) =      8.11879  eV     1   --> A_1  D_1  S_1  
     e( 36 - 36) =      9.29463  eV     1   --> A_2  D_2  S_2  
     e( 37 - 37) =      9.36355  eV     1   --> B_2  D_4  S_4  
     e( 38 - 38) =      9.36604  eV     1   --> B_1  D_3  S_3  
     e( 39 - 39) =      9.48201  eV     1   --> A_1  D_1  S_1  
     e( 40 - 40) =      9.76714  eV     1   --> B_1  D_3  S_3  
     e( 41 - 41) =      9.78743  eV     1   --> A_1  D_1  S_1  
     e( 42 - 42) =     10.02220  eV     1   --> A_2  D_2  S_2  
     e( 43 - 43) =     10.70268  eV     1   --> A_1  D_1  S_1  
     e( 44 - 44) =     10.73680  eV     1   --> B_2  D_4  S_4  
     e( 45 - 45) =     11.08990  eV     1   --> A_1  D_1  S_1  
     e( 46 - 46) =     11.55267  eV     1   --> A_2  D_2  S_2  
     e( 47 - 47) =     11.63467  eV     1   --> B_1  D_3  S_3  
     e( 48 - 48) =     11.66483  eV     1   --> B_2  D_4  S_4  
     e( 49 - 49) =     11.84640  eV     1   --> A_1  D_1  S_1  
     e( 50 - 50) =     11.92043  eV     1   --> B_1  D_3  S_3  
     e( 51 - 51) =     11.92459  eV     1   --> A_2  D_2  S_2  
     e( 52 - 52) =     11.97873  eV     1   --> B_2  D_4  S_4  
     e( 53 - 53) =     12.09167  eV     1   --> A_1  D_1  S_1  
     e( 54 - 54) =     12.13151  eV     1   --> B_1  D_3  S_3  
     e( 55 - 55) =     13.27426  eV     1   --> A_1  D_1  S_1  
     e( 56 - 56) =     13.27525  eV     1   --> A_2  D_2  S_2  
     e( 57 - 57) =     13.28750  eV     1   --> B_1  D_3  S_3  
     e( 58 - 58) =     13.34983  eV     1   --> B_2  D_4  S_4  
     e( 59 - 59) =     13.63777  eV     1   --> B_1  D_3  S_3  
     e( 60 - 60) =     13.81504  eV     1   --> A_1  D_1  S_1  

 **************************************************************************

 **************************************************************************

                    xk=(   0.30000,   0.00000,   0.00000  )

     Band symmetry, C_2v (mm2)  point group:

     e(  1 -  1) =    -24.22744  eV     1   --> A_1  D_1  S_1  
     e(  2 -  2) =    -24.16079  eV     1   --> B_2  D_4  S_4  
     e(  3 -  3) =    -24.10783  eV     1   --> A_1  D_1  S_1  
     e(  4 -  4) =    -24.00836  eV     1   --> B_1  D_3  S_3  
     e(  5 -  5) =    -23.96947  eV     1   --> A_2  D_2  S_2  
     e(  6 -  6) =    -23.79391  eV     1   --> B_1  D_3  S_3  
     e(  7 -  7) =    -23.75221  eV     1   --> A_2  D_2  S_2  
     e(  8 -  8) =    -23.74830  eV     1   --> A_1  D_1  S_1  
     e(  9 -  9) =    -23.74284  eV     1   --> B_2  D_4  S_4  
     e( 10 - 10) =    -23.67061  eV     1   --> B_2  D_4  S_4  
     e( 11 - 11) =    -11.63891  eV     1   --> A_1  D_1  S_1  
     e( 12 - 12) =     -7.01188  eV     1   --> B_2  D_4  S_4  
     e( 13 - 13) =     -4.42200  eV     1   --> A_1  D_1  S_1  
     e( 14 - 14) =     -3.71146  eV     1   --> B_1  D_3  S_3  
     e( 15 - 15) =     -0.77743  eV     1   --> B_2  D_4  S_4  
     e( 16 - 16) =      0.54361  eV     1   --> A_2  D_2  S_2  
     e( 17 - 17) =      0.76626  eV     1   --> A_1  D_1  S_1  
     e( 18 - 18) =      1.65251  eV     1   --> A_1  D_1  S_1  
     e( 19 - 19) =      2.55823  eV     1   --> B_1  D_3  S_3  
     e( 20 - 20) =      2.90070  eV     1   --> A_1  D_1  S_1  
     e( 21 - 21) =      3.19507  eV     1   --> B_2  D_4  S_4  
     e( 22 - 22) =      3.78936  eV     1   --> B_1  D_3  S_3  
     e( 23 - 23) =      4.28176  eV     1   --> A_1  D_1  S_1  
     e( 24 - 24) =      4.34046  eV     1   --> B_1  D_3  S_3  
     e( 25 - 25) =      6.36121  eV     1   --> A_1  D_1  S_1  
     e( 26 - 26) =      6.36895  eV     1   --> B_1  D_3  S_3  
     e( 27 - 27) =      6.41740  eV     1   --> B_2  D_4  S_4  
     e( 28 - 28) =      6.52882  eV     1   --> A_2  D_2  S_2  
     e( 29 - 29) =      6.59885  eV     1   --> A_1  D_1  S_1  
     e( 30 - 30) =      7.07706  eV     1   --> A_1  D_1  S_1  
     e( 31 - 31) =      7.38036  eV     1   --> B_1  D_3  S_3  
     e( 32 - 32) =      7.79738  eV     1   --> A_2  D_2  S_2  
     e( 33 - 33) =      7.90192  eV     1   --> B_2  D_4  S_4  
     e( 34 - 34) =      7.96064  eV     1   --> A_1  D_1  S_1  
[...]
     e( 29 - 29) =      7.20262  eV     1   --> B_2  D_4  S_4  
     e( 30 - 30) =      7.62228  eV     1   --> A_2  D_2  S_2  
     e( 31 - 31) =      8.64277  eV     1   --> B_2  D_4  S_4  
     e( 32 - 32) =      8.77231  eV     1   --> A_1  D_1  S_1  
     e( 33 - 33) =      9.29403  eV     1   --> B_2  D_4  S_4  
     e( 34 - 34) =      9.30600  eV     1   --> B_1  D_3  S_3  
     e( 35 - 35) =      9.30886  eV     1   --> A_1  D_1  S_1  
     e( 36 - 36) =      9.81422  eV     1   --> A_1  D_1  S_1  
     e( 37 - 37) =     10.08940  eV     1   --> B_2  D_4  S_4  
     e( 38 - 38) =     10.24124  eV     1   --> A_1  D_1  S_1  
     e( 39 - 39) =     10.66584  eV     1   --> B_1  D_3  S_3  
     e( 40 - 40) =     10.68076  eV     1   --> A_1  D_1  S_1  
     e( 41 - 41) =     10.72705  eV     1   --> B_2  D_4  S_4  
     e( 42 - 42) =     10.75914  eV     1   --> A_2  D_2  S_2  
     e( 43 - 43) =     10.86862  eV     1   --> A_1  D_1  S_1  
     e( 44 - 44) =     10.90967  eV     1   --> B_1  D_3  S_3  
     e( 45 - 45) =     11.53850  eV     1   --> B_2  D_4  S_4  
     e( 46 - 46) =     11.57329  eV     1   --> A_1  D_1  S_1  
     e( 47 - 47) =     11.62019  eV     1   --> A_1  D_1  S_1  
     e( 48 - 48) =     11.86886  eV     1   --> B_2  D_4  S_4  
     e( 49 - 49) =     11.94800  eV     1   --> A_2  D_2  S_2  
     e( 50 - 50) =     12.00925  eV     1   --> B_1  D_3  S_3  
     e( 51 - 51) =     12.09730  eV     1   --> A_1  D_1  S_1  
     e( 52 - 52) =     12.19527  eV     1   --> B_1  D_3  S_3  
     e( 53 - 53) =     12.21769  eV     1   --> B_2  D_4  S_4  
     e( 54 - 54) =     12.22125  eV     1   --> A_2  D_2  S_2  
     e( 55 - 55) =     12.37372  eV     1   --> A_1  D_1  S_1  
     e( 56 - 56) =     12.56642  eV     1   --> B_2  D_4  S_4  
     e( 57 - 57) =     12.68691  eV     1   --> A_1  D_1  S_1  
     e( 58 - 58) =     13.01178  eV     1   --> B_2  D_4  S_4  
     e( 59 - 59) =     13.33166  eV     1   --> A_1  D_1  S_1  
     e( 60 - 60) =     13.37225  eV     1   --> B_1  D_3  S_3  

 **************************************************************************

 **************************************************************************

                    xk=(   0.05000,   0.02887,   0.00000  )

     Band symmetry, C_2v (mm2)  point group:

     e(  1 -  1) =    -24.11436  eV     1   --> A_1  D_1  S_1  
     e(  2 -  2) =    -24.10266  eV     1   --> B_1  D_3  S_3  
     e(  3 -  3) =    -24.10040  eV     1   --> A_1  D_1  S_1  
     e(  4 -  4) =    -23.99601  eV     1   --> A_2  D_2  S_2  
     e(  5 -  5) =    -23.99449  eV     1   --> B_2  D_4  S_4  
     e(  6 -  6) =    -23.82817  eV     1   --> A_1  D_1  S_1  
     e(  7 -  7) =    -23.82701  eV     1   --> B_1  D_3  S_3  
     e(  8 -  8) =    -23.76600  eV     1   --> B_2  D_4  S_4  
     e(  9 -  9) =    -23.76433  eV     1   --> A_2  D_2  S_2  
     e( 10 - 10) =    -23.70724  eV     1   --> A_1  D_1  S_1  
     e( 11 - 11) =    -12.18438  eV     1   --> A_1  D_1  S_1  
     e( 12 - 12) =     -4.26940  eV     1   --> B_2  D_4  S_4  
     e( 13 - 13) =     -4.25075  eV     1   --> A_1  D_1  S_1  
     e( 14 - 14) =     -3.39883  eV     1   --> B_1  D_3  S_3  
     e( 15 - 15) =     -2.82616  eV     1   --> A_1  D_1  S_1  
     e( 16 - 16) =      0.64134  eV     1   --> A_1  D_1  S_1  
     e( 17 - 17) =      0.75735  eV     1   --> B_1  D_3  S_3  
     e( 18 - 18) =      1.04136  eV     1   --> A_1  D_1  S_1  
     e( 19 - 19) =      2.01750  eV     1   --> B_2  D_4  S_4  
     e( 20 - 20) =      2.22777  eV     1   --> B_2  D_4  S_4  
     e( 21 - 21) =      2.30564  eV     1   --> A_1  D_1  S_1  
     e( 22 - 22) =      3.44969  eV     1   --> B_2  D_4  S_4  
     e( 23 - 23) =      3.65676  eV     1   --> A_1  D_1  S_1  
     e( 24 - 24) =      4.10143  eV     1   --> A_1  D_1  S_1  
     e( 25 - 25) =      5.73432  eV     1   --> B_2  D_4  S_4  
     e( 26 - 26) =      6.00925  eV     1   --> A_2  D_2  S_2  
     e( 27 - 27) =      6.07103  eV     1   --> A_1  D_1  S_1  
     e( 28 - 28) =      6.11275  eV     1   --> B_2  D_4  S_4  
     e( 29 - 29) =      7.23957  eV     1   --> B_2  D_4  S_4  
     e( 30 - 30) =      7.52432  eV     1   --> A_2  D_2  S_2  
     e( 31 - 31) =      8.48184  eV     1   --> B_2  D_4  S_4  
     e( 32 - 32) =      9.01900  eV     1   --> A_1  D_1  S_1  
     e( 33 - 33) =      9.23832  eV     1   --> B_2  D_4  S_4  
     e( 34 - 34) =      9.29694  eV     1   --> A_1  D_1  S_1  
     e( 35 - 35) =      9.41092  eV     1   --> B_1  D_3  S_3  
     e( 36 - 36) =      9.95032  eV     1   --> A_1  D_1  S_1  
     e( 37 - 37) =     10.35402  eV     1   --> B_2  D_4  S_4  
     e( 38 - 38) =     10.41280  eV     1   --> A_1  D_1  S_1  
     e( 39 - 39) =     10.57713  eV     1   --> B_1  D_3  S_3  
     e( 40 - 40) =     10.61129  eV     1   --> A_1  D_1  S_1  
     e( 41 - 41) =     10.87067  eV     1   --> B_2  D_4  S_4  
     e( 42 - 42) =     10.88955  eV     1   --> A_2  D_2  S_2  
     e( 43 - 43) =     10.99014  eV     1   --> A_1  D_1  S_1  
     e( 44 - 44) =     10.99706  eV     1   --> B_1  D_3  S_3  
     e( 45 - 45) =     11.34386  eV     1   --> A_1  D_1  S_1  
     e( 46 - 46) =     11.68246  eV     1   --> B_2  D_4  S_4  
     e( 47 - 47) =     11.79288  eV     1   --> A_2  D_2  S_2  
     e( 48 - 48) =     11.84677  eV     1   --> B_2  D_4  S_4  
     e( 49 - 49) =     11.85058  eV     1   --> A_1  D_1  S_1  
     e( 50 - 50) =     11.87423  eV     1   --> B_1  D_3  S_3  
     e( 51 - 51) =     11.95411  eV     1   --> A_1  D_1  S_1  
     e( 52 - 52) =     12.26468  eV     1   --> B_2  D_4  S_4  
     e( 53 - 53) =     12.28242  eV     1   --> B_1  D_3  S_3  
     e( 54 - 54) =     12.32608  eV     1   --> B_2  D_4  S_4  
     e( 55 - 55) =     12.34072  eV     1   --> A_2  D_2  S_2  
     e( 56 - 56) =     12.35129  eV     1   --> A_1  D_1  S_1  
     e( 57 - 57) =     12.51311  eV     1   --> A_1  D_1  S_1  
     e( 58 - 58) =     12.97387  eV     1   --> B_2  D_4  S_4  
     e( 59 - 59) =     13.21823  eV     1   --> B_1  D_3  S_3  
     e( 60 - 60) =     13.23992  eV     1   --> A_1  D_1  S_1  

 **************************************************************************

 **************************************************************************

                    xk=(   0.03333,   0.01925,   0.00000  )

     Band symmetry, C_2v (mm2)  point group:

     e(  1 -  1) =    -24.11334  eV     1   --> A_1  D_1  S_1  
     e(  2 -  2) =    -24.09909  eV     1   --> B_1  D_3  S_3  
     e(  3 -  3) =    -24.09822  eV     1   --> A_1  D_1  S_1  
     e(  4 -  4) =    -23.99571  eV     1   --> A_2  D_2  S_2  
     e(  5 -  5) =    -23.99503  eV     1   --> B_2  D_4  S_4  
     e(  6 -  6) =    -23.83145  eV     1   --> A_1  D_1  S_1  
     e(  7 -  7) =    -23.83093  eV     1   --> B_1  D_3  S_3  
     e(  8 -  8) =    -23.76538  eV     1   --> B_2  D_4  S_4  
     e(  9 -  9) =    -23.76464  eV     1   --> A_2  D_2  S_2  
     e( 10 - 10) =    -23.70737  eV     1   --> A_1  D_1  S_1  
     e( 11 - 11) =    -12.19621  eV     1   --> A_1  D_1  S_1  
     e( 12 - 12) =     -4.28167  eV     1   --> B_2  D_4  S_4  
     e( 13 - 13) =     -4.02496  eV     1   --> A_1  D_1  S_1  
     e( 14 - 14) =     -3.37249  eV     1   --> B_1  D_3  S_3  
     e( 15 - 15) =     -3.03654  eV     1   --> A_1  D_1  S_1  
     e( 16 - 16) =      0.65367  eV     1   --> A_1  D_1  S_1  
     e( 17 - 17) =      0.70706  eV     1   --> B_1  D_3  S_3  
     e( 18 - 18) =      1.02383  eV     1   --> A_1  D_1  S_1  
     e( 19 - 19) =      2.00533  eV     1   --> B_2  D_4  S_4  
     e( 20 - 20) =      2.28418  eV     1   --> B_2  D_4  S_4  
     e( 21 - 21) =      2.29265  eV     1   --> A_1  D_1  S_1  
     e( 22 - 22) =      3.43791  eV     1   --> B_2  D_4  S_4  
     e( 23 - 23) =      3.63551  eV     1   --> A_1  D_1  S_1  
     e( 24 - 24) =      4.03899  eV     1   --> A_1  D_1  S_1  
     e( 25 - 25) =      5.73187  eV     1   --> B_2  D_4  S_4  
     e( 26 - 26) =      6.05884  eV     1   --> A_1  D_1  S_1  
     e( 27 - 27) =      6.06252  eV     1   --> A_2  D_2  S_2  
     e( 28 - 28) =      6.11324  eV     1   --> B_2  D_4  S_4  
     e( 29 - 29) =      7.29911  eV     1   --> B_2  D_4  S_4  
     e( 30 - 30) =      7.44839  eV     1   --> A_2  D_2  S_2  
     e( 31 - 31) =      8.33305  eV     1   --> B_2  D_4  S_4  
     e( 32 - 32) =      9.20436  eV     1   --> B_2  D_4  S_4  
     e( 33 - 33) =      9.25479  eV     1   --> A_1  D_1  S_1  
     e( 34 - 34) =      9.29079  eV     1   --> A_1  D_1  S_1  
     e( 35 - 35) =      9.50384  eV     1   --> B_1  D_3  S_3  
     e( 36 - 36) =     10.05454  eV     1   --> A_1  D_1  S_1  
     e( 37 - 37) =     10.31700  eV     1   --> A_1  D_1  S_1  
     e( 38 - 38) =     10.47490  eV     1   --> B_1  D_3  S_3  
     e( 39 - 39) =     10.61271  eV     1   --> B_2  D_4  S_4  
     e( 40 - 40) =     10.83708  eV     1   --> A_1  D_1  S_1  
     e( 41 - 41) =     11.02318  eV     1   --> B_2  D_4  S_4  
     e( 42 - 42) =     11.02357  eV     1   --> A_2  D_2  S_2  
     e( 43 - 43) =     11.02806  eV     1   --> A_1  D_1  S_1  
     e( 44 - 44) =     11.12193  eV     1   --> B_1  D_3  S_3  
     e( 45 - 45) =     11.22290  eV     1   --> A_1  D_1  S_1  
     e( 46 - 46) =     11.54865  eV     1   --> B_2  D_4  S_4  
     e( 47 - 47) =     11.63671  eV     1   --> A_2  D_2  S_2  
     e( 48 - 48) =     11.71878  eV     1   --> B_1  D_3  S_3  
     e( 49 - 49) =     11.75893  eV     1   --> A_1  D_1  S_1  
     e( 50 - 50) =     11.96720  eV     1   --> B_2  D_4  S_4  
     e( 51 - 51) =     12.04233  eV     1   --> A_1  D_1  S_1  
     e( 52 - 52) =     12.09027  eV     1   --> B_2  D_4  S_4  
     e( 53 - 53) =     12.14960  eV     1   --> A_1  D_1  S_1  
     e( 54 - 54) =     12.39597  eV     1   --> B_1  D_3  S_3  
     e( 55 - 55) =     12.46143  eV     1   --> B_2  D_4  S_4  
     e( 56 - 56) =     12.47110  eV     1   --> A_2  D_2  S_2  
     e( 57 - 57) =     12.63715  eV     1   --> A_1  D_1  S_1  
     e( 58 - 58) =     12.90898  eV     1   --> B_2  D_4  S_4  
     e( 59 - 59) =     13.07329  eV     1   --> B_1  D_3  S_3  
     e( 60 - 60) =     13.08334  eV     1   --> A_2  D_2  S_2  

 **************************************************************************

 **************************************************************************

                    xk=(   0.01667,   0.00962,   0.00000  )

     Band symmetry, C_2v (mm2)  point group:

     e(  1 -  1) =    -24.11290  eV     1   --> A_1  D_1  S_1  
     e(  2 -  2) =    -24.09688  eV     1   --> B_1  D_3  S_3  
     e(  3 -  3) =    -24.09668  eV     1   --> A_1  D_1  S_1  
     e(  4 -  4) =    -23.99553  eV     1   --> A_2  D_2  S_2  
     e(  5 -  5) =    -23.99536  eV     1   --> B_2  D_4  S_4  
     e(  6 -  6) =    -23.83349  eV     1   --> A_1  D_1  S_1  
     e(  7 -  7) =    -23.83336  eV     1   --> B_1  D_3  S_3  
     e(  8 -  8) =    -23.76501  eV     1   --> B_2  D_4  S_4  
     e(  9 -  9) =    -23.76482  eV     1   --> A_2  D_2  S_2  
     e( 10 - 10) =    -23.70745  eV     1   --> A_1  D_1  S_1  
     e( 11 - 11) =    -12.20332  eV     1   --> A_1  D_1  S_1  
     e( 12 - 12) =     -4.28904  eV     1   --> B_2  D_4  S_4  
     e( 13 - 13) =     -3.81636  eV     1   --> A_1  D_1  S_1  
     e( 14 - 14) =     -3.35631  eV     1   --> B_1  D_3  S_3  
     e( 15 - 15) =     -3.23642  eV     1   --> A_1  D_1  S_1  
     e( 16 - 16) =      0.66286  eV     1   --> A_1  D_1  S_1  
     e( 17 - 17) =      0.67650  eV     1   --> B_1  D_3  S_3  
     e( 18 - 18) =      1.01276  eV     1   --> A_1  D_1  S_1  
     e( 19 - 19) =      1.99802  eV     1   --> B_2  D_4  S_4  
     e( 20 - 20) =      2.28483  eV     1   --> A_1  D_1  S_1  
     e( 21 - 21) =      2.31888  eV     1   --> B_2  D_4  S_4  
     e( 22 - 22) =      3.43083  eV     1   --> B_2  D_4  S_4  
     e( 23 - 23) =      3.62150  eV     1   --> A_1  D_1  S_1  
     e( 24 - 24) =      4.00207  eV     1   --> A_1  D_1  S_1  
     e( 25 - 25) =      5.72909  eV     1   --> B_2  D_4  S_4  
     e( 26 - 26) =      6.05153  eV     1   --> A_1  D_1  S_1  
     e( 27 - 27) =      6.09755  eV     1   --> A_2  D_2  S_2  
     e( 28 - 28) =      6.11105  eV     1   --> B_2  D_4  S_4  
     e( 29 - 29) =      7.35748  eV     1   --> B_2  D_4  S_4  
     e( 30 - 30) =      7.39975  eV     1   --> A_2  D_2  S_2  
     e( 31 - 31) =      8.22183  eV     1   --> B_2  D_4  S_4  
     e( 32 - 32) =      9.18598  eV     1   --> B_2  D_4  S_4  
     e( 33 - 33) =      9.28062  eV     1   --> A_1  D_1  S_1  
     e( 34 - 34) =      9.47666  eV     1   --> A_1  D_1  S_1  
     e( 35 - 35) =      9.57198  eV     1   --> B_1  D_3  S_3  
     e( 36 - 36) =     10.00439  eV     1   --> A_1  D_1  S_1  
     e( 37 - 37) =     10.32016  eV     1   --> A_1  D_1  S_1  
     e( 38 - 38) =     10.39802  eV     1   --> B_1  D_3  S_3  
     e( 39 - 39) =     10.84498  eV     1   --> B_2  D_4  S_4  
     e( 40 - 40) =     10.88050  eV     1   --> A_1  D_1  S_1  
     e( 41 - 41) =     11.12031  eV     1   --> A_1  D_1  S_1  
     e( 42 - 42) =     11.15737  eV     1   --> A_2  D_2  S_2  
     e( 43 - 43) =     11.18261  eV     1   --> B_2  D_4  S_4  
     e( 44 - 44) =     11.25713  eV     1   --> B_1  D_3  S_3  
     e( 45 - 45) =     11.32537  eV     1   --> A_1  D_1  S_1  
     e( 46 - 46) =     11.40655  eV     1   --> B_2  D_4  S_4  
     e( 47 - 47) =     11.48897  eV     1   --> A_2  D_2  S_2  
     e( 48 - 48) =     11.56639  eV     1   --> B_1  D_3  S_3  
     e( 49 - 49) =     11.59420  eV     1   --> A_1  D_1  S_1  
     e( 50 - 50) =     11.69899  eV     1   --> B_2  D_4  S_4  
     e( 51 - 51) =     11.75758  eV     1   --> A_1  D_1  S_1  
     e( 52 - 52) =     12.32466  eV     1   --> B_2  D_4  S_4  
     e( 53 - 53) =     12.38870  eV     1   --> A_1  D_1  S_1  
     e( 54 - 54) =     12.50162  eV     1   --> B_1  D_3  S_3  
     e( 55 - 55) =     12.60263  eV     1   --> A_2  D_2  S_2  
     e( 56 - 56) =     12.61159  eV     1   --> B_2  D_4  S_4  
     e( 57 - 57) =     12.76962  eV     1   --> A_1  D_1  S_1  
     e( 58 - 58) =     12.80267  eV     1   --> B_2  D_4  S_4  
     e( 59 - 59) =     12.91553  eV     1   --> A_1  D_1  S_1  
     e( 60 - 60) =     12.93590  eV     1   --> A_2  D_2  S_2  

 **************************************************************************

 **************************************************************************

                    xk=(   0.00000,   0.00000,   0.00000  )

     point group D_6h(6/mmm)
     there are 12 classes
     the character table:

       E     2C6   2C3   C2    3C2'  3C2'' i     2S3   2S6   s_h   3s_d  3s_v 
A_1g   1.00  1.00  1.00  1.00  1.00  1.00  1.00  1.00  1.00  1.00  1.00  1.00
A_2g   1.00  1.00  1.00  1.00 -1.00 -1.00  1.00  1.00  1.00  1.00 -1.00 -1.00
B_1g   1.00 -1.00  1.00 -1.00  1.00 -1.00  1.00 -1.00  1.00 -1.00  1.00 -1.00
B_2g   1.00 -1.00  1.00 -1.00 -1.00  1.00  1.00 -1.00  1.00 -1.00 -1.00  1.00
E_1g   2.00  1.00 -1.00 -2.00  0.00  0.00  2.00  1.00 -1.00 -2.00  0.00  0.00
E_2g   2.00 -1.00 -1.00  2.00  0.00  0.00  2.00 -1.00 -1.00  2.00  0.00  0.00
A_1u   1.00  1.00  1.00  1.00  1.00  1.00 -1.00 -1.00 -1.00 -1.00 -1.00 -1.00
A_2u   1.00  1.00  1.00  1.00 -1.00 -1.00 -1.00 -1.00 -1.00 -1.00  1.00  1.00
B_1u   1.00 -1.00  1.00 -1.00  1.00 -1.00 -1.00  1.00 -1.00  1.00 -1.00  1.00
B_2u   1.00 -1.00  1.00 -1.00 -1.00  1.00 -1.00  1.00 -1.00  1.00  1.00 -1.00
E_1u   2.00  1.00 -1.00 -2.00  0.00  0.00 -2.00 -1.00  1.00  2.00  0.00  0.00
E_2u   2.00 -1.00 -1.00  2.00  0.00  0.00 -2.00  1.00  1.00 -2.00  0.00  0.00

     the symmetry operations in each class and the name of the first element:

     E        1
                                                                 
     2C6      5    6
                                                                 
     2C3      7    8
                                                                 
     C2       2
                                                                 
     3C2'     4   12   11
                                                                 
     3C2''    3    9   10
                                                                 
     i       13
                                                                 
     2S3     17   18
                                                                 
     2S6     19   20
                                                                 
     s_h     14
                                                                 
     3s_d    16   24   23
                                                                 
     3s_v    15   21   22
                                                                 

     Band symmetry, D_6h(6/mmm) point group:

     e(  1 -  1) =    -24.11278  eV     1   --> A_1g           
     e(  2 -  3) =    -24.09613  eV     2   --> E_2g           
     e(  4 -  5) =    -23.99546  eV     2   --> E_2u           
     e(  6 -  7) =    -23.83418  eV     2   --> E_1u           
     e(  8 -  9) =    -23.76488  eV     2   --> E_1g           
     e( 10 - 10) =    -23.70747  eV     1   --> B_2u           
     e( 11 - 11) =    -12.20569  eV     1   --> A_1g           
     e( 12 - 12) =     -4.29149  eV     1   --> A_2u           
     e( 13 - 13) =     -3.69910  eV     1   --> B_2u           
     e( 14 - 15) =     -3.35085  eV     2   --> E_2g           
     e( 16 - 17) =      0.66625  eV     2   --> E_1u           
     e( 18 - 18) =      1.00895  eV     1   --> A_1g           
     e( 19 - 19) =      1.99558  eV     1   --> A_2u           
     e( 20 - 20) =      2.28222  eV     1   --> A_1g           
     e( 21 - 21) =      2.33059  eV     1   --> B_1g           
     e( 22 - 22) =      3.42847  eV     1   --> A_2u           
     e( 23 - 23) =      3.61656  eV     1   --> A_1g           
     e( 24 - 24) =      3.98990  eV     1   --> A_1g           
     e( 25 - 25) =      5.72796  eV     1   --> A_2u           
     e( 26 - 26) =      6.04909  eV     1   --> A_1g           
     e( 27 - 28) =      6.10984  eV     2   --> E_2u           
     e( 29 - 30) =      7.38292  eV     2   --> E_1g           
     e( 31 - 31) =      8.17898  eV     1   --> A_2u           
     e( 32 - 32) =      9.18015  eV     1   --> A_2u           
     e( 33 - 33) =      9.27886  eV     1   --> A_1g           
     e( 34 - 35) =      9.59790  eV     2   --> E_2g           
     e( 36 - 36) =      9.91266  eV     1   --> B_2u           
     e( 37 - 38) =     10.36886  eV     2   --> E_1u           
     e( 39 - 39) =     10.80264  eV     1   --> A_1g           
     e( 40 - 40) =     10.96843  eV     1   --> B_1g           
     e( 41 - 42) =     11.24820  eV     2   --> E_2u           
     e( 43 - 44) =     11.36545  eV     2   --> E_2g           
     e( 45 - 46) =     11.39344  eV     2   --> E_1g           
     e( 47 - 47) =     11.40603  eV     1   --> B_2u           
     e( 48 - 49) =     11.45247  eV     2   --> E_1u           
     e( 50 - 50) =     11.51536  eV     1   --> A_2u           
     e( 51 - 51) =     11.55638  eV     1   --> A_1g           
     e( 52 - 52) =     12.46148  eV     1   --> B_1g           
     e( 53 - 54) =     12.55377  eV     2   --> E_2g           
     e( 55 - 56) =     12.69095  eV     2   --> E_2u           
     e( 57 - 57) =     12.74733  eV     1   --> B_2u           
     e( 58 - 58) =     12.77440  eV     1   --> A_2u           
     e( 59 - 60) =     12.84233  eV     2   --> E_1g           

 **************************************************************************

     BANDS        :   8m31.81s CPU  11m 6.76s WALL


   This run was terminated on:  20:54:39  24Jun2024            

=------------------------------------------------------------------------------=
   JOB DONE.
=------------------------------------------------------------------------------=
