
     Program PWSCF v.7.2 starts on 24Jun2024 at 17:20:50 

     This program is part of the open-source Quantum ESPRESSO suite
     for quantum simulation of materials; please cite
         "P. Giannozzi et al., J. Phys.:Condens. Matter 21 395502 (2009);
         "P. Giannozzi et al., J. Phys.:Condens. Matter 29 465901 (2017);
         "P. Giannozzi et al., J. Chem. Phys. 152 154105 (2020);
          URL http://www.quantum-espresso.org", 
     in publications or presentations arising from this work. More details at
     http://www.quantum-espresso.org/quote

     Parallel version (MPI), running on     6 processors

     MPI processes distributed on     1 nodes
     5652 MiB available memory on the printing compute node when the environment starts

     Waiting for input...
     Reading input from standard input

     Current dimensions of program PWSCF are:
     Max number of different atomic species (ntypx) = 10
     Max number of k-points (npk) =  40000
     Max angular momentum in pseudopotentials (lmaxx) =  4

     Atomic positions and unit cell read from directory:
     ../tmp/stanene.save/
     Atomic positions from file used, from input discarded


     R & G space division:  proc/nbgrp/npool/nimage =       6
     Subspace diagonalization in iterative solution of the eigenvalue problem:
     a serial algorithm will be used


     Parallelization info
     --------------------
     sticks:   dense  smooth     PW     G-vecs:    dense   smooth      PW
     Min         431     214     61                75909    26818    4015
     Max         432     215     62                75924    26841    4025
     Sum        2587    1285    367               455489   160939   24117

     Using Slab Decomposition



     bravais-lattice index     =            4
     lattice parameter (alat)  =       8.8506  a.u.
     unit-cell volume          =    2563.9136 (a.u.)^3
     number of atoms/cell      =            2
     number of atomic types    =            1
     number of electrons       =        28.00
     number of Kohn-Sham states=           60
     kinetic-energy cutoff     =      60.0000  Ry
     charge density cutoff     =     480.0000  Ry
     Exchange-correlation= SLA  PW   PBE  PBE
                           (   1   4   3   4   0   0   0)

     celldm(1)=   8.850584  celldm(2)=   0.000000  celldm(3)=   4.270286
     celldm(4)=   0.000000  celldm(5)=   0.000000  celldm(6)=   0.000000

     crystal axes: (cart. coord. in units of alat)
               a(1) = (   1.000000   0.000000   0.000000 )  
               a(2) = (  -0.500000   0.866025   0.000000 )  
               a(3) = (   0.000000   0.000000   4.270286 )  

     reciprocal axes: (cart. coord. in units 2 pi/alat)
               b(1) = (  1.000000  0.577350 -0.000000 )  
               b(2) = (  0.000000  1.154701  0.000000 )  
               b(3) = (  0.000000 -0.000000  0.234176 )  


     PseudoPot. # 1 for Sn read from file:
     ../pseudo/Sn_pbe_v1.uspp.F.UPF
     MD5 check sum: 4cf58ce39ec5d5d420df3dd08604eb00
     Pseudo is Ultrasoft + core correction, Zval = 14.0
     Generated by new atomic code, or converted to UPF format
     Using radial grid of  891 points,  6 beta functions with: 
                l(1) =   0
                l(2) =   0
                l(3) =   1
                l(4) =   1
                l(5) =   2
                l(6) =   2
     Q(r) pseudized with  6 coefficients,  rinner =    1.200   1.200   1.200
                                                       1.200   1.200

     atomic species   valence    mass     pseudopotential
        Sn            14.00   118.71000     Sn( 1.00)

     24 Sym. Ops., with inversion, found


                                    s                        frac. trans.

      isym =  1     identity                                     

 cryst.   s( 1) = (     1          0          0      )
                  (     0          1          0      )
                  (     0          0          1      )

 cart.    s( 1) = (  1.0000000  0.0000000  0.0000000 )
                  (  0.0000000  1.0000000  0.0000000 )
                  (  0.0000000  0.0000000  1.0000000 )


      isym =  2     180 deg rotation - cart. axis [0,0,1]        

 cryst.   s( 2) = (    -1          0          0      )
                  (     0         -1          0      )
                  (     0          0          1      )

 cart.    s( 2) = ( -1.0000000  0.0000000  0.0000000 )
                  (  0.0000000 -1.0000000  0.0000000 )
                  (  0.0000000  0.0000000  1.0000000 )


      isym =  3     180 deg rotation - cart. axis [0,1,0]        

 cryst.   s( 3) = (    -1          0          0      )
                  (     1          1          0      )
                  (     0          0         -1      )

 cart.    s( 3) = ( -1.0000000  0.0000000  0.0000000 )
                  (  0.0000000  1.0000000  0.0000000 )
                  (  0.0000000  0.0000000 -1.0000000 )


      isym =  4     180 deg rotation - cart. axis [1,0,0]        

 cryst.   s( 4) = (     1          0          0      )
                  (    -1         -1          0      )
                  (     0          0         -1      )

 cart.    s( 4) = (  1.0000000  0.0000000  0.0000000 )
                  (  0.0000000 -1.0000000  0.0000000 )
                  (  0.0000000  0.0000000 -1.0000000 )


      isym =  5      60 deg rotation - cryst. axis [0,0,1]       

 cryst.   s( 5) = (     1          1          0      )
                  (    -1          0          0      )
                  (     0          0          1      )

 cart.    s( 5) = (  0.5000000 -0.8660254  0.0000000 )
                  (  0.8660254  0.5000000  0.0000000 )
                  (  0.0000000  0.0000000  1.0000000 )


      isym =  6      60 deg rotation - cryst. axis [0,0,-1]      

 cryst.   s( 6) = (     0         -1          0      )
                  (     1          1          0      )
                  (     0          0          1      )

 cart.    s( 6) = (  0.5000000  0.8660254  0.0000000 )
                  ( -0.8660254  0.5000000  0.0000000 )
                  (  0.0000000  0.0000000  1.0000000 )


      isym =  7     120 deg rotation - cryst. axis [0,0,1]       

 cryst.   s( 7) = (     0          1          0      )
                  (    -1         -1          0      )
                  (     0          0          1      )

 cart.    s( 7) = ( -0.5000000 -0.8660254  0.0000000 )
                  (  0.8660254 -0.5000000  0.0000000 )
                  (  0.0000000  0.0000000  1.0000000 )


      isym =  8     120 deg rotation - cryst. axis [0,0,-1]      

 cryst.   s( 8) = (    -1         -1          0      )
                  (     1          0          0      )
                  (     0          0          1      )

 cart.    s( 8) = ( -0.5000000  0.8660254  0.0000000 )
                  ( -0.8660254 -0.5000000  0.0000000 )
                  (  0.0000000  0.0000000  1.0000000 )


      isym =  9     180 deg rotation - cryst. axis [1,-1,0]      

 cryst.   s( 9) = (     0         -1          0      )
                  (    -1          0          0      )
                  (     0          0         -1      )

 cart.    s( 9) = (  0.5000000 -0.8660254  0.0000000 )
                  ( -0.8660254 -0.5000000  0.0000000 )
                  (  0.0000000  0.0000000 -1.0000000 )


      isym = 10     180 deg rotation - cryst. axis [2,1,0]       

 cryst.   s(10) = (     1          1          0      )
                  (     0         -1          0      )
                  (     0          0         -1      )

 cart.    s(10) = (  0.5000000  0.8660254  0.0000000 )
                  (  0.8660254 -0.5000000  0.0000000 )
                  (  0.0000000  0.0000000 -1.0000000 )


      isym = 11     180 deg rotation - cryst. axis [0,1,0]       

 cryst.   s(11) = (    -1         -1          0      )
                  (     0          1          0      )
                  (     0          0         -1      )

 cart.    s(11) = ( -0.5000000 -0.8660254  0.0000000 )
                  ( -0.8660254  0.5000000  0.0000000 )
                  (  0.0000000  0.0000000 -1.0000000 )


      isym = 12     180 deg rotation - cryst. axis [1,1,0]       

 cryst.   s(12) = (     0          1          0      )
                  (     1          0          0      )
                  (     0          0         -1      )

 cart.    s(12) = ( -0.5000000  0.8660254  0.0000000 )
                  (  0.8660254  0.5000000  0.0000000 )
                  (  0.0000000  0.0000000 -1.0000000 )


      isym = 13     inversion                                    

 cryst.   s(13) = (    -1          0          0      )
                  (     0         -1          0      )
                  (     0          0         -1      )

 cart.    s(13) = ( -1.0000000  0.0000000  0.0000000 )
                  (  0.0000000 -1.0000000  0.0000000 )
                  (  0.0000000  0.0000000 -1.0000000 )


      isym = 14     inv. 180 deg rotation - cart. axis [0,0,1]   

 cryst.   s(14) = (     1          0          0      )
                  (     0          1          0      )
                  (     0          0         -1      )

 cart.    s(14) = (  1.0000000  0.0000000  0.0000000 )
                  (  0.0000000  1.0000000  0.0000000 )
                  (  0.0000000  0.0000000 -1.0000000 )


      isym = 15     inv. 180 deg rotation - cart. axis [0,1,0]   

 cryst.   s(15) = (     1          0          0      )
                  (    -1         -1          0      )
                  (     0          0          1      )

 cart.    s(15) = (  1.0000000  0.0000000  0.0000000 )
                  (  0.0000000 -1.0000000  0.0000000 )
                  (  0.0000000  0.0000000  1.0000000 )


      isym = 16     inv. 180 deg rotation - cart. axis [1,0,0]   

 cryst.   s(16) = (    -1          0          0      )
                  (     1          1          0      )
                  (     0          0          1      )

 cart.    s(16) = ( -1.0000000  0.0000000  0.0000000 )
                  (  0.0000000  1.0000000  0.0000000 )
                  (  0.0000000  0.0000000  1.0000000 )


      isym = 17     inv.  60 deg rotation - cryst. axis [0,0,1]  

 cryst.   s(17) = (    -1         -1          0      )
                  (     1          0          0      )
                  (     0          0         -1      )

 cart.    s(17) = ( -0.5000000  0.8660254  0.0000000 )
                  ( -0.8660254 -0.5000000  0.0000000 )
                  (  0.0000000  0.0000000 -1.0000000 )


      isym = 18     inv.  60 deg rotation - cryst. axis [0,0,-1] 

 cryst.   s(18) = (     0          1          0      )
                  (    -1         -1          0      )
                  (     0          0         -1      )

 cart.    s(18) = ( -0.5000000 -0.8660254  0.0000000 )
                  (  0.8660254 -0.5000000  0.0000000 )
                  (  0.0000000  0.0000000 -1.0000000 )


      isym = 19     inv. 120 deg rotation - cryst. axis [0,0,1]  

 cryst.   s(19) = (     0         -1          0      )
                  (     1          1          0      )
                  (     0          0         -1      )

 cart.    s(19) = (  0.5000000  0.8660254  0.0000000 )
                  ( -0.8660254  0.5000000  0.0000000 )
                  (  0.0000000  0.0000000 -1.0000000 )


      isym = 20     inv. 120 deg rotation - cryst. axis [0,0,-1] 

 cryst.   s(20) = (     1          1          0      )
                  (    -1          0          0      )
                  (     0          0         -1      )

 cart.    s(20) = (  0.5000000 -0.8660254  0.0000000 )
                  (  0.8660254  0.5000000  0.0000000 )
                  (  0.0000000  0.0000000 -1.0000000 )


      isym = 21     inv. 180 deg rotation - cryst. axis [1,-1,0] 

 cryst.   s(21) = (     0          1          0      )
                  (     1          0          0      )
                  (     0          0          1      )

 cart.    s(21) = ( -0.5000000  0.8660254  0.0000000 )
                  (  0.8660254  0.5000000  0.0000000 )
                  (  0.0000000  0.0000000  1.0000000 )


      isym = 22     inv. 180 deg rotation - cryst. axis [2,1,0]  

 cryst.   s(22) = (    -1         -1          0      )
                  (     0          1          0      )
                  (     0          0          1      )

 cart.    s(22) = ( -0.5000000 -0.8660254  0.0000000 )
                  ( -0.8660254  0.5000000  0.0000000 )
                  (  0.0000000  0.0000000  1.0000000 )


      isym = 23     inv. 180 deg rotation - cryst. axis [0,1,0]  

 cryst.   s(23) = (     1          1          0      )
                  (     0         -1          0      )
                  (     0          0          1      )

 cart.    s(23) = (  0.5000000  0.8660254  0.0000000 )
                  (  0.8660254 -0.5000000  0.0000000 )
                  (  0.0000000  0.0000000  1.0000000 )


      isym = 24     inv. 180 deg rotation - cryst. axis [1,1,0]  

 cryst.   s(24) = (     0         -1          0      )
                  (    -1          0          0      )
                  (     0          0          1      )

 cart.    s(24) = (  0.5000000 -0.8660254  0.0000000 )
                  ( -0.8660254 -0.5000000  0.0000000 )
                  (  0.0000000  0.0000000  1.0000000 )


     point group D_6h(6/mmm)
     there are 12 classes
     the character table:

       E     2C6   2C3   C2    3C2'  3C2'' i     2S3   2S6   s_h   3s_d  3s_v 
A_1g   1.00  1.00  1.00  1.00  1.00  1.00  1.00  1.00  1.00  1.00  1.00  1.00
A_2g   1.00  1.00  1.00  1.00 -1.00 -1.00  1.00  1.00  1.00  1.00 -1.00 -1.00
B_1g   1.00 -1.00  1.00 -1.00  1.00 -1.00  1.00 -1.00  1.00 -1.00  1.00 -1.00
B_2g   1.00 -1.00  1.00 -1.00 -1.00  1.00  1.00 -1.00  1.00 -1.00 -1.00  1.00
E_1g   2.00  1.00 -1.00 -2.00  0.00  0.00  2.00  1.00 -1.00 -2.00  0.00  0.00
E_2g   2.00 -1.00 -1.00  2.00  0.00  0.00  2.00 -1.00 -1.00  2.00  0.00  0.00
A_1u   1.00  1.00  1.00  1.00  1.00  1.00 -1.00 -1.00 -1.00 -1.00 -1.00 -1.00
A_2u   1.00  1.00  1.00  1.00 -1.00 -1.00 -1.00 -1.00 -1.00 -1.00  1.00  1.00
B_1u   1.00 -1.00  1.00 -1.00  1.00 -1.00 -1.00  1.00 -1.00  1.00 -1.00  1.00
B_2u   1.00 -1.00  1.00 -1.00 -1.00  1.00 -1.00  1.00 -1.00  1.00  1.00 -1.00
E_1u   2.00  1.00 -1.00 -2.00  0.00  0.00 -2.00 -1.00  1.00  2.00  0.00  0.00
E_2u   2.00 -1.00 -1.00  2.00  0.00  0.00 -2.00  1.00  1.00 -2.00  0.00  0.00

     the symmetry operations in each class and the name of the first element:

     E        1
          identity                                               
     2C6      5    6
           60 deg rotation - cryst. axis [0,0,1]                 
     2C3      7    8
          120 deg rotation - cryst. axis [0,0,1]                 
     C2       2
          180 deg rotation - cart. axis [0,0,1]                  
     3C2'     4   12   11
          180 deg rotation - cart. axis [1,0,0]                  
     3C2''    3    9   10
          180 deg rotation - cart. axis [0,1,0]                  
     i       13
          inversion                                              
     2S3     17   18
          inv.  60 deg rotation - cryst. axis [0,0,1]            
     2S6     19   20
          inv. 120 deg rotation - cryst. axis [0,0,1]            
     s_h     14
          inv. 180 deg rotation - cart. axis [0,0,1]             
     3s_d    16   24   23
          inv. 180 deg rotation - cart. axis [1,0,0]             
     3s_v    15   21   22
          inv. 180 deg rotation - cart. axis [0,1,0]             

   Cartesian axes

     site n.     atom                  positions (alat units)
         1           Sn  tau(   1) = (   0.0000000   0.5773503   2.1351428  )
         2           Sn  tau(   2) = (   0.5000000   0.2886751   2.1351428  )

   Crystallographic axes

     site n.     atom                  positions (cryst. coord.)
         1           Sn  tau(   1) = (  0.3333333  0.6666667  0.5000000  )
         2           Sn  tau(   2) = (  0.6666667  0.3333333  0.5000000  )

     number of k points=    91  Methfessel-Paxton smearing, width (Ry)=  0.0200
                       cart. coord. in units 2pi/alat
        k(    1) = (   0.0000000   0.0000000   0.0000000), wk =   0.0219780
        k(    2) = (   0.0166667   0.0000000   0.0000000), wk =   0.0219780
        k(    3) = (   0.0333333   0.0000000   0.0000000), wk =   0.0219780
        k(    4) = (   0.0500000   0.0000000   0.0000000), wk =   0.0219780
        k(    5) = (   0.0666667   0.0000000   0.0000000), wk =   0.0219780
        k(    6) = (   0.0833333   0.0000000   0.0000000), wk =   0.0219780
        k(    7) = (   0.1000000   0.0000000   0.0000000), wk =   0.0219780
        k(    8) = (   0.1166667   0.0000000   0.0000000), wk =   0.0219780
        k(    9) = (   0.1333333   0.0000000   0.0000000), wk =   0.0219780
        k(   10) = (   0.1500000   0.0000000   0.0000000), wk =   0.0219780
        k(   11) = (   0.1666667   0.0000000   0.0000000), wk =   0.0219780
        k(   12) = (   0.1833333   0.0000000   0.0000000), wk =   0.0219780
        k(   13) = (   0.2000000   0.0000000   0.0000000), wk =   0.0219780
        k(   14) = (   0.2166667   0.0000000   0.0000000), wk =   0.0219780
        k(   15) = (   0.2333333   0.0000000   0.0000000), wk =   0.0219780
        k(   16) = (   0.2500000   0.0000000   0.0000000), wk =   0.0219780
        k(   17) = (   0.2666667   0.0000000   0.0000000), wk =   0.0219780
        k(   18) = (   0.2833333   0.0000000   0.0000000), wk =   0.0219780
        k(   19) = (   0.3000000   0.0000000   0.0000000), wk =   0.0219780
        k(   20) = (   0.3166667   0.0000000   0.0000000), wk =   0.0219780
        k(   21) = (   0.3333333   0.0000000   0.0000000), wk =   0.0219780
        k(   22) = (   0.3500000   0.0000000   0.0000000), wk =   0.0219780
        k(   23) = (   0.3666667   0.0000000   0.0000000), wk =   0.0219780
        k(   24) = (   0.3833333   0.0000000   0.0000000), wk =   0.0219780
        k(   25) = (   0.4000000   0.0000000   0.0000000), wk =   0.0219780
        k(   26) = (   0.4166667   0.0000000   0.0000000), wk =   0.0219780
        k(   27) = (   0.4333333   0.0000000   0.0000000), wk =   0.0219780
        k(   28) = (   0.4500000   0.0000000   0.0000000), wk =   0.0219780
        k(   29) = (   0.4666667   0.0000000   0.0000000), wk =   0.0219780
        k(   30) = (   0.4833333   0.0000000   0.0000000), wk =   0.0219780
        k(   31) = (   0.5000000   0.0000000   0.0000000), wk =   0.0219780
        k(   32) = (   0.5166667   0.0000000   0.0000000), wk =   0.0219780
        k(   33) = (   0.5333333   0.0000000   0.0000000), wk =   0.0219780
        k(   34) = (   0.5500000   0.0000000   0.0000000), wk =   0.0219780
        k(   35) = (   0.5666667   0.0000000   0.0000000), wk =   0.0219780
        k(   36) = (   0.5833333   0.0000000   0.0000000), wk =   0.0219780
        k(   37) = (   0.6000000   0.0000000   0.0000000), wk =   0.0219780
        k(   38) = (   0.6166667   0.0000000   0.0000000), wk =   0.0219780
        k(   39) = (   0.6333333   0.0000000   0.0000000), wk =   0.0219780
        k(   40) = (   0.6500000   0.0000000   0.0000000), wk =   0.0219780
        k(   41) = (   0.6666667   0.0000000   0.0000000), wk =   0.0219780
        k(   42) = (   0.6583333   0.0144338   0.0000000), wk =   0.0219780
        k(   43) = (   0.6500000   0.0288675   0.0000000), wk =   0.0219780
        k(   44) = (   0.6416667   0.0433013   0.0000000), wk =   0.0219780
        k(   45) = (   0.6333333   0.0577350   0.0000000), wk =   0.0219780
        k(   46) = (   0.6250000   0.0721688   0.0000000), wk =   0.0219780
        k(   47) = (   0.6166667   0.0866025   0.0000000), wk =   0.0219780
        k(   48) = (   0.6083333   0.1010363   0.0000000), wk =   0.0219780
        k(   49) = (   0.6000000   0.1154701   0.0000000), wk =   0.0219780
        k(   50) = (   0.5916667   0.1299038   0.0000000), wk =   0.0219780
        k(   51) = (   0.5833333   0.1443376   0.0000000), wk =   0.0219780
        k(   52) = (   0.5750000   0.1587713   0.0000000), wk =   0.0219780
        k(   53) = (   0.5666667   0.1732051   0.0000000), wk =   0.0219780
        k(   54) = (   0.5583333   0.1876388   0.0000000), wk =   0.0219780
        k(   55) = (   0.5500000   0.2020726   0.0000000), wk =   0.0219780
        k(   56) = (   0.5416667   0.2165064   0.0000000), wk =   0.0219780
        k(   57) = (   0.5333333   0.2309401   0.0000000), wk =   0.0219780
        k(   58) = (   0.5250000   0.2453739   0.0000000), wk =   0.0219780
        k(   59) = (   0.5166667   0.2598076   0.0000000), wk =   0.0219780
        k(   60) = (   0.5083333   0.2742414   0.0000000), wk =   0.0219780
        k(   61) = (   0.5000000   0.2886751   0.0000000), wk =   0.0219780
        k(   62) = (   0.4833333   0.2790526   0.0000000), wk =   0.0219780
        k(   63) = (   0.4666667   0.2694301   0.0000000), wk =   0.0219780
        k(   64) = (   0.4500000   0.2598076   0.0000000), wk =   0.0219780
        k(   65) = (   0.4333333   0.2501851   0.0000000), wk =   0.0219780
        k(   66) = (   0.4166667   0.2405626   0.0000000), wk =   0.0219780
        k(   67) = (   0.4000000   0.2309401   0.0000000), wk =   0.0219780
        k(   68) = (   0.3833333   0.2213176   0.0000000), wk =   0.0219780
        k(   69) = (   0.3666667   0.2116951   0.0000000), wk =   0.0219780
        k(   70) = (   0.3500000   0.2020726   0.0000000), wk =   0.0219780
        k(   71) = (   0.3333333   0.1924501   0.0000000), wk =   0.0219780
        k(   72) = (   0.3166667   0.1828276   0.0000000), wk =   0.0219780
        k(   73) = (   0.3000000   0.1732051   0.0000000), wk =   0.0219780
        k(   74) = (   0.2833333   0.1635826   0.0000000), wk =   0.0219780
        k(   75) = (   0.2666667   0.1539601   0.0000000), wk =   0.0219780
        k(   76) = (   0.2500000   0.1443376   0.0000000), wk =   0.0219780
        k(   77) = (   0.2333333   0.1347151   0.0000000), wk =   0.0219780
        k(   78) = (   0.2166667   0.1250926   0.0000000), wk =   0.0219780
        k(   79) = (   0.2000000   0.1154701   0.0000000), wk =   0.0219780
        k(   80) = (   0.1833333   0.1058475   0.0000000), wk =   0.0219780
        k(   81) = (   0.1666667   0.0962250   0.0000000), wk =   0.0219780
        k(   82) = (   0.1500000   0.0866025   0.0000000), wk =   0.0219780
        k(   83) = (   0.1333333   0.0769800   0.0000000), wk =   0.0219780
        k(   84) = (   0.1166667   0.0673575   0.0000000), wk =   0.0219780
        k(   85) = (   0.1000000   0.0577350   0.0000000), wk =   0.0219780
        k(   86) = (   0.0833333   0.0481125   0.0000000), wk =   0.0219780
        k(   87) = (   0.0666667   0.0384900   0.0000000), wk =   0.0219780
        k(   88) = (   0.0500000   0.0288675   0.0000000), wk =   0.0219780
        k(   89) = (   0.0333333   0.0192450   0.0000000), wk =   0.0219780
        k(   90) = (   0.0166667   0.0096225   0.0000000), wk =   0.0219780
        k(   91) = (   0.0000000   0.0000000   0.0000000), wk =   0.0219780

                       cryst. coord.
        k(    1) = (   0.0000000   0.0000000   0.0000000), wk =   0.0219780
        k(    2) = (   0.0166667  -0.0083333   0.0000000), wk =   0.0219780
        k(    3) = (   0.0333333  -0.0166667   0.0000000), wk =   0.0219780
        k(    4) = (   0.0500000  -0.0250000   0.0000000), wk =   0.0219780
        k(    5) = (   0.0666667  -0.0333333   0.0000000), wk =   0.0219780
        k(    6) = (   0.0833333  -0.0416667   0.0000000), wk =   0.0219780
        k(    7) = (   0.1000000  -0.0500000   0.0000000), wk =   0.0219780
        k(    8) = (   0.1166667  -0.0583333   0.0000000), wk =   0.0219780
        k(    9) = (   0.1333333  -0.0666667   0.0000000), wk =   0.0219780
        k(   10) = (   0.1500000  -0.0750000   0.0000000), wk =   0.0219780
        k(   11) = (   0.1666667  -0.0833333   0.0000000), wk =   0.0219780
        k(   12) = (   0.1833333  -0.0916667   0.0000000), wk =   0.0219780
        k(   13) = (   0.2000000  -0.1000000   0.0000000), wk =   0.0219780
        k(   14) = (   0.2166667  -0.1083333   0.0000000), wk =   0.0219780
        k(   15) = (   0.2333333  -0.1166667   0.0000000), wk =   0.0219780
        k(   16) = (   0.2500000  -0.1250000   0.0000000), wk =   0.0219780
        k(   17) = (   0.2666667  -0.1333333   0.0000000), wk =   0.0219780
        k(   18) = (   0.2833333  -0.1416667   0.0000000), wk =   0.0219780
        k(   19) = (   0.3000000  -0.1500000   0.0000000), wk =   0.0219780
        k(   20) = (   0.3166667  -0.1583333   0.0000000), wk =   0.0219780
        k(   21) = (   0.3333333  -0.1666667   0.0000000), wk =   0.0219780
        k(   22) = (   0.3500000  -0.1750000   0.0000000), wk =   0.0219780
        k(   23) = (   0.3666667  -0.1833333   0.0000000), wk =   0.0219780
        k(   24) = (   0.3833333  -0.1916667   0.0000000), wk =   0.0219780
        k(   25) = (   0.4000000  -0.2000000   0.0000000), wk =   0.0219780
        k(   26) = (   0.4166667  -0.2083333   0.0000000), wk =   0.0219780
        k(   27) = (   0.4333333  -0.2166667   0.0000000), wk =   0.0219780
        k(   28) = (   0.4500000  -0.2250000   0.0000000), wk =   0.0219780
        k(   29) = (   0.4666667  -0.2333333   0.0000000), wk =   0.0219780
        k(   30) = (   0.4833333  -0.2416667   0.0000000), wk =   0.0219780
        k(   31) = (   0.5000000  -0.2500000   0.0000000), wk =   0.0219780
        k(   32) = (   0.5166667  -0.2583333   0.0000000), wk =   0.0219780
        k(   33) = (   0.5333333  -0.2666667   0.0000000), wk =   0.0219780
        k(   34) = (   0.5500000  -0.2750000   0.0000000), wk =   0.0219780
        k(   35) = (   0.5666667  -0.2833333   0.0000000), wk =   0.0219780
        k(   36) = (   0.5833333  -0.2916667   0.0000000), wk =   0.0219780
        k(   37) = (   0.6000000  -0.3000000   0.0000000), wk =   0.0219780
        k(   38) = (   0.6166667  -0.3083333   0.0000000), wk =   0.0219780
        k(   39) = (   0.6333333  -0.3166667   0.0000000), wk =   0.0219780
        k(   40) = (   0.6500000  -0.3250000   0.0000000), wk =   0.0219780
        k(   41) = (   0.6666667  -0.3333333   0.0000000), wk =   0.0219780
        k(   42) = (   0.6583333  -0.3166667   0.0000000), wk =   0.0219780
        k(   43) = (   0.6500000  -0.3000000   0.0000000), wk =   0.0219780
        k(   44) = (   0.6416667  -0.2833333   0.0000000), wk =   0.0219780
        k(   45) = (   0.6333333  -0.2666667   0.0000000), wk =   0.0219780
        k(   46) = (   0.6250000  -0.2500000   0.0000000), wk =   0.0219780
        k(   47) = (   0.6166667  -0.2333333   0.0000000), wk =   0.0219780
        k(   48) = (   0.6083333  -0.2166667   0.0000000), wk =   0.0219780
        k(   49) = (   0.6000000  -0.2000000   0.0000000), wk =   0.0219780
        k(   50) = (   0.5916667  -0.1833333   0.0000000), wk =   0.0219780
        k(   51) = (   0.5833333  -0.1666667   0.0000000), wk =   0.0219780
        k(   52) = (   0.5750000  -0.1500000   0.0000000), wk =   0.0219780
        k(   53) = (   0.5666667  -0.1333333   0.0000000), wk =   0.0219780
        k(   54) = (   0.5583333  -0.1166667   0.0000000), wk =   0.0219780
        k(   55) = (   0.5500000  -0.1000000   0.0000000), wk =   0.0219780
        k(   56) = (   0.5416667  -0.0833333   0.0000000), wk =   0.0219780
        k(   57) = (   0.5333333  -0.0666667   0.0000000), wk =   0.0219780
        k(   58) = (   0.5250000  -0.0500000   0.0000000), wk =   0.0219780
        k(   59) = (   0.5166667  -0.0333333   0.0000000), wk =   0.0219780
        k(   60) = (   0.5083333  -0.0166667   0.0000000), wk =   0.0219780
        k(   61) = (   0.5000000   0.0000000   0.0000000), wk =   0.0219780
        k(   62) = (   0.4833333  -0.0000000   0.0000000), wk =   0.0219780
        k(   63) = (   0.4666667   0.0000000   0.0000000), wk =   0.0219780
        k(   64) = (   0.4500000   0.0000000   0.0000000), wk =   0.0219780
        k(   65) = (   0.4333333  -0.0000000   0.0000000), wk =   0.0219780
        k(   66) = (   0.4166667   0.0000000   0.0000000), wk =   0.0219780
        k(   67) = (   0.4000000   0.0000000   0.0000000), wk =   0.0219780
        k(   68) = (   0.3833333   0.0000000   0.0000000), wk =   0.0219780
        k(   69) = (   0.3666667   0.0000000   0.0000000), wk =   0.0219780
        k(   70) = (   0.3500000   0.0000000   0.0000000), wk =   0.0219780
        k(   71) = (   0.3333333   0.0000000   0.0000000), wk =   0.0219780
        k(   72) = (   0.3166667   0.0000000   0.0000000), wk =   0.0219780
        k(   73) = (   0.3000000   0.0000000   0.0000000), wk =   0.0219780
        k(   74) = (   0.2833333   0.0000000   0.0000000), wk =   0.0219780
        k(   75) = (   0.2666667   0.0000000   0.0000000), wk =   0.0219780
        k(   76) = (   0.2500000   0.0000000   0.0000000), wk =   0.0219780
        k(   77) = (   0.2333333   0.0000000   0.0000000), wk =   0.0219780
        k(   78) = (   0.2166667  -0.0000000   0.0000000), wk =   0.0219780
        k(   79) = (   0.2000000   0.0000000   0.0000000), wk =   0.0219780
        k(   80) = (   0.1833333   0.0000000   0.0000000), wk =   0.0219780
        k(   81) = (   0.1666667   0.0000000   0.0000000), wk =   0.0219780
        k(   82) = (   0.1500000   0.0000000   0.0000000), wk =   0.0219780
        k(   83) = (   0.1333333   0.0000000   0.0000000), wk =   0.0219780
        k(   84) = (   0.1166667   0.0000000   0.0000000), wk =   0.0219780
        k(   85) = (   0.1000000   0.0000000   0.0000000), wk =   0.0219780
        k(   86) = (   0.0833333   0.0000000   0.0000000), wk =   0.0219780
        k(   87) = (   0.0666667   0.0000000   0.0000000), wk =   0.0219780
        k(   88) = (   0.0500000   0.0000000   0.0000000), wk =   0.0219780
        k(   89) = (   0.0333333   0.0000000   0.0000000), wk =   0.0219780
        k(   90) = (   0.0166667   0.0000000   0.0000000), wk =   0.0219780
        k(   91) = (   0.0000000   0.0000000   0.0000000), wk =   0.0219780

     Dense  grid:   455489 G-vectors     FFT dimensions: (  64,  64, 270)

     Smooth grid:   160939 G-vectors     FFT dimensions: (  45,  45, 192)

     Dynamical RAM for                 wfc:       3.07 MB

     Dynamical RAM for     wfc (w. buffer):       3.07 MB

     Dynamical RAM for           str. fact:       1.16 MB

     Dynamical RAM for           local pot:       0.00 MB

     Dynamical RAM for          nlocal pot:       1.84 MB

     Dynamical RAM for                qrad:       1.76 MB

     Dynamical RAM for          rho,v,vnew:       7.69 MB

     Dynamical RAM for           G-vectors:       4.55 MB

     Dynamical RAM for          h,s,v(r/c):       0.66 MB

     Dynamical RAM for          <psi|beta>:       0.03 MB

     Dynamical RAM for                 psi:       6.14 MB

     Dynamical RAM for                hpsi:       6.14 MB

     Dynamical RAM for                spsi:       6.14 MB

     Dynamical RAM for      wfcinit/wfcrot:       6.22 MB

     Dynamical RAM for           addusdens:     217.76 MB

     Estimated static dynamical RAM per process >      29.42 MB

     Estimated max dynamical RAM per process >     247.18 MB

     Estimated total dynamical RAM >       1.45 GB

     The potential is recalculated from file :
     ../tmp/stanene.save/charge-density


     negative rho (up, down):  8.722E-05 0.000E+00
     Starting wfcs are   18 randomized atomic wfcs +   42 random wfcs

     Band Structure Calculation
     Davidson diagonalization with overlap

     Computing kpt #:     1  of    91
     total cpu time spent up to now is      115.0 secs

     Computing kpt #:     2  of    91
     total cpu time spent up to now is      196.4 secs

     Computing kpt #:     3  of    91
     total cpu time spent up to now is      273.0 secs

     Computing kpt #:     4  of    91
     total cpu time spent up to now is      349.6 secs

     Computing kpt #:     5  of    91
     total cpu time spent up to now is      422.9 secs

     Computing kpt #:     6  of    91
     total cpu time spent up to now is      499.5 secs

     Computing kpt #:     7  of    91
     total cpu time spent up to now is      576.0 secs

     Computing kpt #:     8  of    91
     total cpu time spent up to now is      654.0 secs

     Computing kpt #:     9  of    91
     total cpu time spent up to now is      769.2 secs

     Computing kpt #:    10  of    91
     total cpu time spent up to now is      854.4 secs

     Computing kpt #:    11  of    91
     total cpu time spent up to now is      939.6 secs

     Computing kpt #:    12  of    91
     total cpu time spent up to now is     1040.6 secs

     Computing kpt #:    13  of    91
     total cpu time spent up to now is     1131.3 secs

     Computing kpt #:    14  of    91
     total cpu time spent up to now is     1215.3 secs

     Computing kpt #:    15  of    91
     total cpu time spent up to now is     1294.5 secs

     Computing kpt #:    16  of    91
     total cpu time spent up to now is     1381.7 secs

     Computing kpt #:    17  of    91
     total cpu time spent up to now is     1458.4 secs

     Computing kpt #:    18  of    91
     total cpu time spent up to now is     1533.7 secs

     Computing kpt #:    19  of    91
     total cpu time spent up to now is     1607.8 secs

     Computing kpt #:    20  of    91
     total cpu time spent up to now is     1678.2 secs

     Computing kpt #:    21  of    91
     total cpu time spent up to now is     1761.7 secs

     Computing kpt #:    22  of    91
     total cpu time spent up to now is     1845.0 secs

     Computing kpt #:    23  of    91
     total cpu time spent up to now is     1938.7 secs

     Computing kpt #:    24  of    91
     total cpu time spent up to now is     2024.3 secs

     Computing kpt #:    25  of    91
     total cpu time spent up to now is     2111.7 secs

     Computing kpt #:    26  of    91
     total cpu time spent up to now is     2191.5 secs

     Computing kpt #:    27  of    91
     total cpu time spent up to now is     2279.8 secs

     Computing kpt #:    28  of    91
     total cpu time spent up to now is     2352.0 secs

     Computing kpt #:    29  of    91
     total cpu time spent up to now is     2416.7 secs

     Computing kpt #:    30  of    91
     total cpu time spent up to now is     2479.1 secs

     Computing kpt #:    31  of    91
     total cpu time spent up to now is     2541.9 secs

     Computing kpt #:    32  of    91
     total cpu time spent up to now is     2614.2 secs

     Computing kpt #:    33  of    91
     total cpu time spent up to now is     2688.2 secs

     Computing kpt #:    34  of    91
     total cpu time spent up to now is     2764.9 secs

     Computing kpt #:    35  of    91
     total cpu time spent up to now is     2867.1 secs

     Computing kpt #:    36  of    91
     total cpu time spent up to now is     2945.6 secs

     Computing kpt #:    37  of    91
     total cpu time spent up to now is     3014.4 secs

     Computing kpt #:    38  of    91
     total cpu time spent up to now is     3083.0 secs

     Computing kpt #:    39  of    91
     total cpu time spent up to now is     3165.9 secs

     Computing kpt #:    40  of    91
     total cpu time spent up to now is     3244.5 secs

     Computing kpt #:    41  of    91
     total cpu time spent up to now is     3321.6 secs

     Computing kpt #:    42  of    91
     total cpu time spent up to now is     3411.3 secs

     Computing kpt #:    43  of    91
     total cpu time spent up to now is     3519.5 secs

     Computing kpt #:    44  of    91
     c_bands:  1 eigenvalues not converged
     total cpu time spent up to now is     3648.7 secs

     Computing kpt #:    45  of    91
     total cpu time spent up to now is     3728.9 secs

     Computing kpt #:    46  of    91
     total cpu time spent up to now is     3807.1 secs

     Computing kpt #:    47  of    91
     total cpu time spent up to now is     3897.9 secs

     Computing kpt #:    48  of    91
     total cpu time spent up to now is     3970.9 secs

     Computing kpt #:    49  of    91
     total cpu time spent up to now is     4038.8 secs

     Computing kpt #:    50  of    91
     total cpu time spent up to now is     4108.7 secs

     Computing kpt #:    51  of    91
     total cpu time spent up to now is     4182.1 secs

     Computing kpt #:    52  of    91
     c_bands:  1 eigenvalues not converged
     total cpu time spent up to now is     4315.6 secs

     Computing kpt #:    53  of    91
     total cpu time spent up to now is     4387.9 secs

     Computing kpt #:    54  of    91
     total cpu time spent up to now is     4459.6 secs

     Computing kpt #:    55  of    91
     total cpu time spent up to now is     4529.2 secs

     Computing kpt #:    56  of    91
     total cpu time spent up to now is     4591.6 secs

     Computing kpt #:    57  of    91
     total cpu time spent up to now is     4653.1 secs

     Computing kpt #:    58  of    91
     total cpu time spent up to now is     4711.9 secs

     Computing kpt #:    59  of    91
     total cpu time spent up to now is     4770.3 secs

     Computing kpt #:    60  of    91
     total cpu time spent up to now is     4829.1 secs

     Computing kpt #:    61  of    91
     total cpu time spent up to now is     4885.6 secs

     Computing kpt #:    62  of    91
     total cpu time spent up to now is     4933.6 secs

     Computing kpt #:    63  of    91
     total cpu time spent up to now is     4983.1 secs

     Computing kpt #:    64  of    91
     total cpu time spent up to now is     5037.4 secs

     Computing kpt #:    65  of    91
     total cpu time spent up to now is     5100.7 secs

     Computing kpt #:    66  of    91
     total cpu time spent up to now is     5173.4 secs

     Computing kpt #:    67  of    91
     total cpu time spent up to now is     5249.2 secs

     Computing kpt #:    68  of    91
     total cpu time spent up to now is     5312.8 secs

     Computing kpt #:    69  of    91
     total cpu time spent up to now is    10463.4 secs

     Computing kpt #:    70  of    91
     total cpu time spent up to now is    10508.7 secs

     Computing kpt #:    71  of    91
     total cpu time spent up to now is    10562.2 secs

     Computing kpt #:    72  of    91
     total cpu time spent up to now is    10600.6 secs

     Computing kpt #:    73  of    91
     total cpu time spent up to now is    10640.0 secs

     Computing kpt #:    74  of    91
     total cpu time spent up to now is    10707.5 secs

     Computing kpt #:    75  of    91
     total cpu time spent up to now is    10781.6 secs

     Computing kpt #:    76  of    91
     total cpu time spent up to now is    10854.5 secs

     Computing kpt #:    77  of    91
     total cpu time spent up to now is    10947.8 secs

     Computing kpt #:    78  of    91
     total cpu time spent up to now is    11036.0 secs

     Computing kpt #:    79  of    91
     total cpu time spent up to now is    11121.5 secs

     Computing kpt #:    80  of    91
     total cpu time spent up to now is    11192.7 secs

     Computing kpt #:    81  of    91
     total cpu time spent up to now is    11268.8 secs

     Computing kpt #:    82  of    91
     total cpu time spent up to now is    11337.2 secs

     Computing kpt #:    83  of    91
     c_bands:  1 eigenvalues not converged
     total cpu time spent up to now is    11455.3 secs

     Computing kpt #:    84  of    91
     total cpu time spent up to now is    11531.3 secs

     Computing kpt #:    85  of    91
     total cpu time spent up to now is    11617.8 secs

     Computing kpt #:    86  of    91
     c_bands:  1 eigenvalues not converged
     total cpu time spent up to now is    11742.7 secs

     Computing kpt #:    87  of    91
     total cpu time spent up to now is    11822.9 secs

     Computing kpt #:    88  of    91
     total cpu time spent up to now is    11905.2 secs

     Computing kpt #:    89  of    91
     total cpu time spent up to now is    11983.4 secs

     Computing kpt #:    90  of    91
     total cpu time spent up to now is    12077.7 secs

     Computing kpt #:    91  of    91
     total cpu time spent up to now is    12148.5 secs

     ethr =  3.57E-10,  avg # of iterations = 57.2

     total cpu time spent up to now is    12148.6 secs

     End of band structure calculation

          k = 0.0000 0.0000 0.0000 ( 20025 PWs)   bands (ev):

   -24.1128 -24.0961 -24.0961 -23.9955 -23.9955 -23.8342 -23.8342 -23.7649
   -23.7649 -23.7075 -12.2057  -4.2915  -3.6991  -3.3508  -3.3508   0.6663
     0.6663   1.0089   1.9956   2.2822   2.3306   3.4285   3.6166   3.9899
     5.7280   6.0491   6.1098   6.1098   7.3829   7.3829   8.1790   9.1801
     9.2789   9.5979   9.5979   9.9127  10.3689  10.3689  10.8026  10.9684
    11.2482  11.2482  11.3655  11.3655  11.3934  11.3934  11.4060  11.4525
    11.4525  11.5154  11.5564  12.4615  12.5538  12.5538  12.6910  12.6910
    12.7473  12.7744  12.8423  12.8423

          k = 0.0167 0.0000 0.0000 ( 20053 PWs)   bands (ev):

   -24.1129 -24.0967 -24.0966 -23.9955 -23.9954 -23.8337 -23.8336 -23.7650
   -23.7648 -23.7075 -12.2039  -4.2897  -3.7918  -3.3550  -3.2602   0.6637
     0.6740   1.0118   1.9974   2.2842   2.3218   3.4302   3.6203   3.9990
     5.7288   6.0509   6.1005   6.1108   7.3634   7.3956   8.2114   9.1845
     9.2802   9.5024   9.5777   9.9881  10.3275  10.3927  10.8632  10.8721
    11.1456  11.1679  11.2350  11.2519  11.3531  11.4375  11.4386  11.4901
    11.6235  11.6636  11.7125  12.3539  12.4221  12.5077  12.5811  12.7089
    12.7372  12.8179  12.8419  12.9389

          k = 0.0333 0.0000 0.0000 ( 20039 PWs)   bands (ev):

   -24.1132 -24.0983 -24.0978 -23.9957 -23.9951 -23.8321 -23.8317 -23.7653
   -23.7647 -23.7074 -12.1986  -4.2841  -3.9663  -3.3672  -3.0921   0.6563
     0.6971   1.0202   2.0029   2.2900   2.2957   3.4356   3.6310   4.0266
     5.7310   6.0564   6.0729   6.1139   7.3150   7.4334   8.2983   9.1981
     9.2838   9.3246   9.5171  10.0946  10.2500  10.4728  10.6884  10.9498
    10.9533  10.9587  11.0770  11.2562  11.3481  11.4449  11.4471  11.6803
    11.8496  11.8801  11.9321  12.1669  12.2257  12.3809  12.3857  12.7221
    12.7393  12.8015  12.8448  13.0263

          k = 0.0500 0.0000 0.0000 ( 20033 PWs)   bands (ev):

   -24.1139 -24.1007 -24.0998 -23.9959 -23.9947 -23.8296 -23.8288 -23.7657
   -23.7645 -23.7073 -12.1897  -4.2749  -4.1589  -3.3876  -2.9103   0.6453
     0.7360   1.0336   2.0120   2.2529   2.2998   3.4444   3.6475   4.0732
     5.7329   6.0285   6.0655   6.1193   7.2565   7.4954   8.4190   9.1296
     9.2225   9.2860   9.4220  10.1626  10.1810  10.4868  10.5870  10.7431
    10.7712  10.8062  11.1888  11.2602  11.3541  11.4546  11.4739  11.8726
    11.9840  11.9923  12.1056  12.1226  12.1595  12.1836  12.2134  12.7351
    12.7489  12.7941  12.8585  13.0608

          k = 0.0667 0.0000 0.0000 ( 20023 PWs)   bands (ev):

   -24.1154 -24.1035 -24.1025 -23.9962 -23.9942 -23.8263 -23.8247 -23.7664
   -23.7641 -23.7071 -12.1773  -4.3571  -4.2620  -3.4159  -2.7277   0.6319
     0.7907   1.0514   2.0248   2.1947   2.3134   3.4567   3.6685   4.1392
     5.7302   5.9724   6.0783   6.1274   7.2016   7.5800   8.5555   8.9307
     9.2474   9.2610   9.3397  10.1270  10.2030  10.2821  10.4880  10.5374
    10.6145  10.8433  11.2615  11.3230  11.3638  11.4677  11.5426  11.7586
    11.8078  11.9797  12.0365  12.1368  12.3374  12.3395  12.3881  12.7529
    12.7638  12.8057  12.8737  13.0837

          k = 0.0833 0.0000 0.0000 ( 20017 PWs)   bands (ev):

   -24.1183 -24.1058 -24.1058 -23.9966 -23.9934 -23.8222 -23.8197 -23.7672
   -23.7637 -23.7069 -12.1613  -4.5573  -4.2455  -3.4519  -2.5482   0.6177
     0.8616   1.0730   2.0412   2.1224   2.3309   3.4725   3.6930   4.2243
     5.7107   5.9185   6.0948   6.1383   7.1574   7.6855   8.6928   8.7316
     9.1116   9.3188   9.3370  10.0744  10.0783  10.2312  10.2902  10.3359
    10.4393  11.0267  11.2491  11.3741  11.3914  11.4803  11.5859  11.6318
    11.6682  11.7836  11.8821  12.3584  12.5647  12.5791  12.6050  12.7802
    12.7862  12.8410  12.8927  13.1065

          k = 0.1000 0.0000 0.0000 ( 20001 PWs)   bands (ev):

   -24.1231 -24.1096 -24.1072 -23.9971 -23.9925 -23.8174 -23.8139 -23.7682
   -23.7633 -23.7066 -12.1418  -4.7578  -4.2254  -3.4953  -2.3736   0.6040
     0.9490   1.0982   2.0376   2.0612   2.3521   3.4917   3.7203   4.3278
     5.6553   5.8886   6.1149   6.1524   7.1262   7.8101   8.5341   8.8173
     8.9485   9.3528   9.4023   9.8768   9.9938  10.0835  10.1413  10.2620
    10.3069  11.1653  11.1882  11.3737  11.4131  11.4581  11.4652  11.5591
    11.6050  11.6435  11.9356  12.5634  12.7519  12.7523  12.8175  12.8338
    12.8456  12.9211  12.9542  13.1383

          k = 0.1167 0.0000 0.0000 ( 20029 PWs)   bands (ev):

   -24.1293 -24.1137 -24.1079 -23.9977 -23.9915 -23.8121 -23.8074 -23.7695
   -23.7627 -23.7062 -12.1188  -4.9577  -4.2016  -3.5457  -2.2053   0.5922
     1.0532   1.1267   1.9419   2.0848   2.3772   3.5142   3.7502   4.4485
     5.5628   5.8876   6.1386   6.1697   7.1079   7.9518   8.3389   8.7766
     8.9194   9.3744   9.5103   9.6785   9.8610   9.8825   9.9618  10.2369
    10.2898  11.0514  11.1054  11.3056  11.3701  11.4265  11.4938  11.5018
    11.5514  11.6416  12.1304  12.6947  12.8103  12.8106  12.9295  12.9664
    12.9939  13.0794  13.1610  13.2124

          k = 0.1333 0.0000 0.0000 ( 20035 PWs)   bands (ev):

   -24.1366 -24.1182 -24.1082 -23.9983 -23.9902 -23.8065 -23.8004 -23.7708
   -23.7620 -23.7056 -12.0923  -5.1565  -4.1742  -3.6028  -2.0438   0.5832
     1.1583   1.1742   1.8369   2.1120   2.4060   3.5399   3.7828   4.5846
     5.4482   5.9034   6.1659   6.1904   7.1010   8.1090   8.1466   8.6013
     8.9964   9.3999   9.4838   9.5932   9.6842   9.6942   9.8471  10.2078
    10.3199  10.8779  10.9402  11.1466  11.2373  11.4313  11.4977  11.5413
    11.5442  11.8286  12.3347  12.7453  12.8443  12.8492  12.9618  13.0632
    13.1794  13.2416  13.3274  13.3540

          k = 0.1500 0.0000 0.0000 ( 20063 PWs)   bands (ev):

   -24.1445 -24.1228 -24.1083 -23.9991 -23.9889 -23.8006 -23.7931 -23.7724
   -23.7613 -23.7047 -12.0622  -5.3537  -4.1433  -3.6661  -1.8897   0.5780
     1.1932   1.3120   1.7242   2.1427   2.4386   3.5686   3.8182   4.7346
     5.3223   5.9288   6.1968   6.2144   7.1041   7.9574   8.2799   8.4252
     9.0501   9.2931   9.4270   9.4892   9.5131   9.5173   9.9315  10.1931
    10.3527  10.6952  10.7588  10.9680  11.0839  11.4521  11.5223  11.5672
    11.5793  12.0484  12.5228  12.7565  12.8787  12.8897  12.9913  13.0640
    13.1084  13.1676  13.3342  13.4258

          k = 0.1667 0.0000 0.0000 ( 20061 PWs)   bands (ev):

   -24.1530 -24.1276 -24.1083 -23.9999 -23.9873 -23.7945 -23.7856 -23.7741
   -23.7605 -23.7036 -12.0287  -5.5489  -4.1088  -3.7351  -1.7430   0.5772
     1.2311   1.4662   1.6050   2.1768   2.4749   3.6001   3.8565   4.8968
     5.1908   5.9605   6.2313   6.2415   7.1154   7.7715   8.2501   8.4628
     9.0726   9.1070   9.2979   9.3288   9.3797   9.4663  10.1105  10.1779
    10.3880  10.5115  10.5759  10.7904  10.9385  11.4811  11.5570  11.5991
    11.6178  12.2667  12.6601  12.7186  12.9161  12.9319  12.9326  13.0124
    13.0499  13.0606  13.2429  13.4539

          k = 0.1833 0.0000 0.0000 ( 20065 PWs)   bands (ev):

   -24.1619 -24.1323 -24.1083 -24.0008 -23.9856 -23.7883 -23.7782 -23.7761
   -23.7596 -23.7021 -11.9918  -5.7419  -4.0708  -3.8092  -1.6036   0.5814
     1.2723   1.4807   1.6364   2.2143   2.5150   3.6339   3.8980   5.0572
     5.0695   5.9973   6.2694   6.2717   7.1339   7.5891   8.0770   8.6544
     8.9274   9.0255   9.1103   9.1484   9.3016   9.5015  10.1502  10.3044
    10.3295  10.3864  10.4346  10.6260  10.8137  11.5152  11.5983  11.6360
    11.6588  12.4348  12.6134  12.7051  12.8335  12.9069  12.9070  12.9579
    13.0256  13.0926  13.1219  13.4027

          k = 0.2000 0.0000 0.0000 ( 20079 PWs)   bands (ev):

   -24.1711 -24.1370 -24.1082 -24.0017 -23.9838 -23.7821 -23.7781 -23.7710
   -23.7587 -23.7000 -11.9514  -5.9323  -4.0294  -3.8878  -1.4710   0.5909
     1.3167   1.3523   1.8217   2.2551   2.5589   3.6696   3.9427   4.9242
     5.2511   6.0387   6.3047   6.3109   7.1585   7.4103   7.9069   8.7329
     8.8751   8.8986   8.9263   8.9689   9.3006   9.5411  10.0981  10.1506
    10.2116  10.3806  10.4723  10.5957  10.7212  11.5529  11.6457  11.6767
    11.7030  12.4291  12.4685  12.6553  12.6905  12.7691  12.8978  13.0024
    13.0375  13.0716  13.1564  13.4296

          k = 0.2167 0.0000 0.0000 ( 20085 PWs)   bands (ev):

   -24.1804 -24.1415 -24.1081 -24.0027 -23.9818 -23.7804 -23.7760 -23.7642
   -23.7577 -23.6972 -11.9076  -6.1200  -3.9846  -3.9704  -1.3446   0.6060
     1.2209   1.3643   2.0213   2.2991   2.6065   3.7061   3.9906   4.7943
     5.4396   6.0842   6.3400   6.3558   7.1883   7.2352   7.7409   8.5677
     8.7427   8.7462   8.7920   9.0797   9.3290   9.5837   9.9757  10.0146
    10.0354  10.2431  10.5180  10.6675  10.7916  11.5925  11.6997  11.7203
    11.7508  12.2999  12.3125  12.3877  12.5482  12.6167  13.0471  13.0512
    13.0700  13.0860  13.2687  13.4550

          k = 0.2333 0.0000 0.0000 ( 20083 PWs)   bands (ev):

   -24.1899 -24.1459 -24.1080 -24.0038 -23.9796 -23.7828 -23.7700 -23.7582
   -23.7567 -23.6937 -11.8604  -6.3048  -4.0564  -3.9364  -1.2236   0.6267
     1.0873   1.4153   2.2341   2.3461   2.6578   3.7418   4.0420   4.6704
     5.6330   6.1338   6.3774   6.4037   7.0638   7.2225   7.5801   8.4009
     8.5697   8.5809   8.6183   9.2968   9.3632   9.6286   9.8071   9.8622
     9.9041  10.0896  10.5674  10.6485  11.0143  11.6304  11.7613  11.7656
    11.8021  12.0651  12.1444  12.1590  12.4192  12.4604  13.1039  13.1127
    13.1216  13.1499  13.4622  13.4918

          k = 0.2500 0.0000 0.0000 ( 20099 PWs)   bands (ev):

   -24.1994 -24.1501 -24.1079 -24.0049 -23.9773 -23.7853 -23.7642 -23.7556
   -23.7530 -23.6892 -11.8099  -6.4865  -4.1451  -3.8849  -1.1072   0.6532
     0.9521   1.4696   2.3959   2.4590   2.7129   3.7740   4.0967   4.5561
     5.8285   6.1871   6.4160   6.4543   6.8962   7.2604   7.4265   8.2391
     8.3971   8.4200   8.4480   9.3924   9.4976   9.6666   9.6708   9.6924
     9.7806   9.9471  10.6204  10.6538  11.2372  11.6567  11.7366  11.8108
    11.8323  11.8570  11.9841  12.0219  12.2875  12.3065  13.1608  13.1621
    13.1671  13.2217  13.5357  13.6968

          k = 0.2667 0.0000 0.0000 ( 20111 PWs)   bands (ev):

   -24.2088 -24.1539 -24.1078 -24.0060 -23.9748 -23.7881 -23.7586 -23.7545
   -23.7488 -23.6838 -11.7561  -6.6650  -4.2360  -3.8302  -0.9946   0.6853
     0.8161   1.5272   2.4482   2.6949   2.7718   3.7978   4.1549   4.4572
     6.0216   6.2442   6.4551   6.5063   6.7325   7.2839   7.3007   8.0837
     8.2282   8.2629   8.2814   9.4014   9.4471   9.5262   9.6204   9.7419
     9.7884   9.8314  10.6741  10.6768  11.4102  11.4489  11.6408  11.8228
    11.8462  11.9098  11.9166  11.9334  12.1676  12.1681  13.2165  13.2185
    13.2219  13.2862  13.5848  13.7651

          k = 0.2833 0.0000 0.0000 ( 20127 PWs)   bands (ev):

   -24.2182 -24.1575 -24.1078 -24.0072 -23.9722 -23.7909 -23.7534 -23.7533
   -23.7454 -23.6776 -11.6991  -6.8401  -4.3285  -3.7724  -0.8849   0.6798
     0.7230   1.5882   2.5026   2.8343   2.9407   3.8057   4.2166   4.3822
     6.2048   6.3049   6.4934   6.5565   6.5728   7.1609   7.3419   7.9359
     8.0632   8.1120   8.1188   9.2946   9.3636   9.3660   9.4820   9.7671
     9.7874  10.0222  10.7027  10.7368  11.0899  11.5527  11.6347  11.6648
    11.8464  11.9204  11.9246  11.9787  12.0917  12.1315  13.2743  13.2752
    13.2875  13.3498  13.6378  13.8150

          k = 0.3000 0.0000 0.0000 ( 20141 PWs)   bands (ev):

   -24.2274 -24.1608 -24.1078 -24.0084 -23.9695 -23.7939 -23.7522 -23.7483
   -23.7428 -23.6706 -11.6389  -7.0119  -4.4220  -3.7115  -0.7774   0.5436
     0.7663   1.6525   2.5582   2.9007   3.1951   3.7894   4.2818   4.3405
     6.3612   6.3689   6.4174   6.5288   6.5988   7.0771   7.3804   7.7974
     7.9019   7.9606   7.9710   9.1407   9.2046   9.2777   9.3379   9.7628
     9.8346  10.2668  10.7313  10.7866  10.8002  11.4241  11.5093  11.7708
    11.7814  11.8153  11.9646  12.0448  12.0912  12.2699  13.3335  13.3376
    13.3578  13.4138  13.6934  13.8620

          k = 0.3167 0.0000 0.0000 ( 20119 PWs)   bands (ev):

   -24.2365 -24.1637 -24.1079 -24.0096 -23.9666 -23.7970 -23.7510 -23.7436
   -23.7409 -23.6631 -11.5756  -7.1801  -4.5161  -3.6476  -0.6714   0.4080
     0.8148   1.7202   2.6142   2.9708   3.4570   3.7468   4.3353   4.3503
     6.2664   6.4363   6.4459   6.5587   6.6415   7.0642   7.4079   7.6708
     7.7445   7.8079   7.8483   8.9901   9.0493   9.1585   9.1940   9.7961
     9.8694  10.5028  10.5153  10.7673  10.8668  11.2860  11.3569  11.6577
    11.6849  11.9055  12.0244  12.1147  12.1369  12.4702  13.3955  13.4028
    13.4332  13.4760  13.7506  13.8533

          k = 0.3333 0.0000 0.0000 ( 20113 PWs)   bands (ev):

   -24.2454 -24.1662 -24.1080 -24.0108 -23.9635 -23.8003 -23.7498 -23.7395
   -23.7393 -23.6553 -11.5092  -7.3447  -4.6101  -3.5808  -0.5661   0.2734
     0.8686   1.7913   2.6689   3.0446   3.6860   3.7251   4.3605   4.4224
     6.1202   6.4147   6.5064   6.5788   6.7148   7.1270   7.4055   7.5599
     7.5909   7.6633   7.7632   8.8443   8.8978   9.0280   9.0521   9.8477
     9.8565  10.2940  10.7587  10.7902  10.9364  11.1556  11.2082  11.5172
    11.5913  12.0052  12.0946  12.1882  12.1998  12.6942  13.4595  13.4697
    13.5144  13.5177  13.7051  13.8073

          k = 0.3500 0.0000 0.0000 ( 20101 PWs)   bands (ev):

   -24.2540 -24.1684 -24.1082 -24.0120 -23.9604 -23.8037 -23.7487 -23.7385
   -23.7353 -23.6474 -11.4399  -7.5056  -4.7037  -3.5112  -0.4610   0.1400
     0.9272   1.8657   2.7198   3.1222   3.6190   3.9978   4.4069   4.4977
     5.9795   6.3196   6.5788   6.5838   6.7960   7.2157   7.3514   7.4411
     7.4694   7.5373   7.7376   8.7039   8.7501   8.8951   8.9137   9.7402
     9.9084  10.2198  10.7975  10.9081  11.0036  11.0688  11.1241  11.3795
    11.5171  12.0983  12.1726  12.2653  12.2714  12.9245  13.4412  13.5243
    13.5361  13.6021  13.6780  13.8605

          k = 0.3667 0.0000 0.0000 ( 20107 PWs)   bands (ev):

   -24.2623 -24.1702 -24.1085 -24.0133 -23.9571 -23.8072 -23.7475 -23.7378
   -23.7317 -23.6394 -11.3678  -7.6627  -4.7964  -3.4389  -0.3557   0.0082
     0.9906   1.9434   2.7627   3.2035   3.5570   4.2729   4.4675   4.5764
     5.8459   6.2021   6.5681   6.6519   6.8721   7.2403   7.2575   7.2952
     7.4042   7.4757   7.7605   8.5699   8.6061   8.7640   8.7799   9.5724
     9.9739  10.2435  10.7804  10.8198  10.9152  11.0916  11.2469  11.3353
    11.4735  12.1893  12.2579  12.3460  12.3487  13.1481  13.2821  13.5881
    13.5957  13.6958  13.7382  13.9055

          k = 0.3833 0.0000 0.0000 ( 20125 PWs)   bands (ev):

   -24.2703 -24.1716 -24.1089 -24.0145 -23.9537 -23.8108 -23.7463 -23.7373
   -23.7285 -23.6315 -11.2928  -7.8160  -4.8877  -3.3642  -0.2497  -0.1219
     1.0585   2.0244   2.7922   3.2886   3.5101   4.5380   4.5462   4.6583
     5.7226   6.0766   6.5283   6.7217   6.9402   7.1520   7.1531   7.1532
     7.3663   7.4931   7.8064   8.4436   8.4660   8.6375   8.6510   9.4383
    10.0411  10.3015  10.6907  10.7351  10.7777  11.1214  11.1702  11.4654
    11.5909  12.2808  12.3514  12.4298  12.4308  13.1134  13.3501  13.6312
    13.6473  13.7856  13.8120  13.9142

          k = 0.4000 0.0000 0.0000 ( 20121 PWs)   bands (ev):

   -24.2780 -24.1725 -24.1094 -24.0157 -23.9501 -23.8146 -23.7451 -23.7370
   -23.7257 -23.6237 -11.2153  -7.9655  -4.9772  -3.2870  -0.2500  -0.1426
     1.1306   2.1085   2.8017   3.3773   3.4872   4.6159   4.7431   4.8070
     5.6196   5.9483   6.4656   6.7746   6.9873   7.0150   7.0352   7.0613
     7.3523   7.4960   7.8604   8.3270   8.3297   8.5189   8.5250   9.3811
    10.1066  10.3717  10.5592  10.6427  10.6667  11.0059  11.2527  11.4893
    11.8493  12.3739  12.4558  12.5159  12.5171  12.9466  13.5087  13.6091
    13.6929  13.8214  13.8310  13.8628

          k = 0.4167 0.0000 0.0000 ( 20119 PWs)   bands (ev):

   -24.2853 -24.1731 -24.1101 -24.0169 -23.9465 -23.8184 -23.7440 -23.7367
   -23.7233 -23.6162 -11.1353  -8.1110  -5.0644  -3.2076  -0.3759  -0.0341
     1.2066   2.1959   2.7878   3.4698   3.4934   4.7000   4.8307   5.0197
     5.5714   5.8194   6.3852   6.7695   6.8810   6.8905   7.0182   7.0309
     7.3540   7.4677   7.9123   8.1974   8.2234   8.4001   8.4141   9.4152
    10.1649  10.4297  10.4407  10.5111  10.5909  10.9052  11.3381  11.5372
    12.0988  12.4693  12.5779  12.5980  12.6071  12.7901  13.5290  13.5689
    13.6964  13.7147  13.7972  13.8236

          k = 0.4333 0.0000 0.0000 ( 20121 PWs)   bands (ev):

   -24.2922 -24.1733 -24.1108 -24.0180 -23.9427 -23.8223 -23.7429 -23.7365
   -23.7212 -23.6089 -11.0529  -8.2526  -5.1491  -3.1261  -0.4995   0.0761
     1.2861   2.2864   2.7526   3.5276   3.5659   4.7891   4.9204   5.1006
     5.6608   5.6906   6.2928   6.6933   6.7514   6.7550   6.9651   7.0759
     7.3603   7.4535   7.9473   8.0691   8.1378   8.2769   8.3365   9.5283
    10.2068  10.3033  10.3829  10.4422  10.5788  10.8287  11.4255  11.6016
    12.3237  12.5671  12.5855  12.7005  12.7313  12.7364  13.4252  13.4483
    13.5923  13.6355  13.7885  13.8190

          k = 0.4500 0.0000 0.0000 ( 20137 PWs)   bands (ev):

   -24.2987 -24.1731 -24.1117 -24.0192 -23.9389 -23.8263 -23.7419 -23.7363
   -23.7196 -23.6021 -10.9684  -8.3901  -5.2307  -3.0428  -0.6205   0.1881
     1.3688   2.3798   2.7021   3.5844   3.6657   4.8828   5.0114   5.0550
     5.5620   5.8802   6.1935   6.5904   6.6123   6.6269   6.8359   7.1519
     7.3594   7.4841   7.9427   7.9450   8.0771   8.1582   8.3088   9.6972
    10.1808  10.2189  10.2584  10.3560  10.6546  10.7894  11.5138  11.6776
    12.4450  12.5071  12.6671  12.7967  12.8203  12.9302  13.2229  13.3175
    13.4720  13.5477  13.7257  13.8117

          k = 0.4667 0.0000 0.0000 ( 20129 PWs)   bands (ev):

   -24.3048 -24.1725 -24.1127 -24.0202 -23.9349 -23.8304 -23.7408 -23.7361
   -23.7183 -23.5956 -10.8820  -8.5237  -5.3089  -2.9578  -0.7390   0.3023
     1.4541   2.4760   2.6428   3.6579   3.7691   4.9655   4.9804   5.1013
     5.4339   6.0906   6.1413   6.4551   6.4819   6.5124   6.6729   7.2368
     7.3409   7.5431   7.8255   7.8933   8.0478   8.0479   8.3374   9.9010
    10.0624  10.1374  10.1925  10.2565  10.7472  10.7960  11.6002  11.7617
    12.3012  12.6488  12.7637  12.8946  12.9205  12.9632  13.1558  13.2301
    13.3548  13.4534  13.6290  13.7868

          k = 0.4833 0.0000 0.0000 ( 20145 PWs)   bands (ev):

   -24.3105 -24.1715 -24.1139 -24.0212 -23.9309 -23.8346 -23.7399 -23.7359
   -23.7174 -23.5895 -10.7938  -8.6532  -5.3834  -2.8714  -0.8546   0.4187
     1.5414   2.5750   2.5797   3.7436   3.8760   4.8642   5.0813   5.1785
     5.3133   5.9864   6.2765   6.3249   6.3740   6.4928   6.5168   7.3002
     7.3206   7.6061   7.7112   7.8245   7.9551   8.0524   8.4011   9.9485
    10.0200  10.1051  10.1334  10.1763  10.8425  10.8460  11.6776  11.8516
    12.1725  12.6554  12.7549  12.8941  12.9916  13.0262  13.1206  13.2410
    13.3606  13.4463  13.5252  13.7484

          k = 0.5000 0.0000 0.0000 ( 20149 PWs)   bands (ev):

   -24.3157 -24.1701 -24.1153 -24.0222 -23.9268 -23.8389 -23.7390 -23.7356
   -23.7168 -23.5839 -10.7042  -8.7786  -5.4536  -2.7838  -0.9674   0.5376
     1.6298   2.5160   2.6764   3.8384   3.9864   4.7604   5.1353   5.1850
     5.2990   5.8825   6.0883   6.2478   6.2694   6.3807   6.7387   7.2399
     7.3897   7.6042   7.6379   7.7653   7.9081   8.0862   8.4822   9.8396
     9.9063  10.0431  10.0549  10.3753  10.9154  10.9491  11.7239  11.9453
    12.0831  12.3693  12.8022  12.9985  13.0767  13.0893  13.1245  13.1423
    13.2817  13.4216  13.7048  13.7242

          k = 0.5167 0.0000 0.0000 ( 20159 PWs)   bands (ev):

   -24.3204 -24.1685 -24.1169 -24.0231 -23.9226 -23.8431 -23.7382 -23.7353
   -23.7166 -23.5788 -10.6134  -8.8999  -5.5193  -2.6954  -1.0773   0.6589
     1.7184   2.4541   2.7799   3.9405   4.0999   4.6572   4.9936   5.2901
     5.3503   5.7797   5.9232   6.1414   6.1700   6.2611   7.0055   7.1659
     7.4166   7.5125   7.6012   7.7502   7.9406   8.1416   8.5728   9.7361
     9.7960   9.9435   9.9673  10.6187  11.0042  11.0557  11.7001  12.0405
    12.0736  12.0763  12.7640  13.0229  13.0971  13.1094  13.1434  13.2509
    13.2681  13.3223  13.6652  14.0077

          k = 0.5333 0.0000 0.0000 ( 20151 PWs)   bands (ev):

   -24.3246 -24.1664 -24.1187 -24.0239 -23.9183 -23.8475 -23.7374 -23.7349
   -23.7167 -23.5741 -10.5217  -9.0171  -5.5799  -2.6063  -1.1840   0.7829
     1.8054   2.3953   2.8852   4.0485   4.2163   4.5560   4.8299   5.3544
     5.3944   5.6789   5.8271   6.0353   6.0784   6.1549   7.0842   7.2071
     7.3845   7.4889   7.5233   7.7984   8.0241   8.2116   8.6696   9.6390
     9.6893   9.8451   9.8764  10.8626  11.1021  11.1651  11.6169  11.7841
    12.1344  12.1351  12.6830  12.9195  13.0358  13.1895  13.2437  13.2614
    13.3319  13.3682  13.6429  14.2888

          k = 0.5500 0.0000 0.0000 ( 20149 PWs)   bands (ev):

   -24.3284 -24.1641 -24.1207 -24.0246 -23.9140 -23.8519 -23.7367 -23.7343
   -23.7170 -23.5700 -10.4295  -9.1302  -5.6351  -2.5170  -1.2876   0.9096
     1.8888   2.3409   2.9916   4.1616   4.3343   4.4575   4.6491   5.2892
     5.4926   5.5804   5.8183   5.9320   6.0000   6.0678   6.9985   7.2112
     7.3181   7.4344   7.6590   7.8866   8.1276   8.2904   8.7704   9.5494
     9.5861   9.7491   9.7856  11.0991  11.2003  11.2763  11.5007  11.5174
    12.2228  12.2269  12.5910  12.8197  12.9605  13.1171  13.3602  13.3609
    13.3940  13.4890  13.6587  14.5563

          k = 0.5667 0.0000 0.0000 ( 20149 PWs)   bands (ev):

   -24.3317 -24.1615 -24.1229 -24.0252 -23.9096 -23.8563 -23.7361 -23.7337
   -23.7177 -23.5665 -10.3372  -9.2391  -5.6845  -2.4279  -1.3880   1.0390
     1.9653   2.2918   3.0980   4.2788   4.3622   4.4222   4.4869   5.1941
     5.4845   5.5707   5.8275   5.8321   5.9488   6.0318   6.9117   7.1346
     7.2401   7.3443   7.9008   7.9924   8.2408   8.3732   8.8737   9.4693
     9.4863   9.6563   9.6971  11.1677  11.3192  11.3569  11.3884  11.4231
    12.2992  12.3306  12.4973  12.7236  12.8926  13.0292  13.4332  13.4843
    13.4845  13.6129  13.7251  14.7905

          k = 0.5833 0.0000 0.0000 ( 20137 PWs)   bands (ev):

   -24.3344 -24.1586 -24.1253 -24.0258 -23.9052 -23.8608 -23.7356 -23.7328
   -23.7186 -23.5634 -10.2451  -9.3439  -5.7275  -2.3392  -1.4851   1.1712
     2.0302   2.2487   3.2029   4.2488   4.2702   4.3995   4.5825   5.1047
     5.3916   5.6018   5.7358   5.7812   5.9520   6.0841   6.8252   7.0473
     7.1600   7.2564   8.1065   8.1378   8.3601   8.4550   8.9771   9.3898
     9.4017   9.5670   9.6135  10.9043  11.3448  11.4530  11.4846  11.5265
    12.3553  12.4048  12.4401  12.6312  12.8436  12.9453  13.4703  13.6129
    13.6141  13.7394  13.8264  14.6560

          k = 0.6000 0.0000 0.0000 ( 20127 PWs)   bands (ev):

   -24.3367 -24.1555 -24.1280 -24.0263 -23.9008 -23.8652 -23.7352 -23.7319
   -23.7198 -23.5609 -10.1537  -9.4445  -5.7637  -2.2515  -1.5788   1.3062
     2.0762   2.2122   3.3030   4.0640   4.1817   4.5227   4.6938   5.0389
     5.3019   5.5781   5.6431   5.7062   6.0172   6.1830   6.7401   6.9596
     7.0820   7.1722   8.2246   8.3519   8.4838   8.5293   9.0758   9.2966
     9.3519   9.4818   9.5390  10.6324  11.2913  11.5672  11.5770  11.6918
    12.3147  12.3824  12.5404  12.5546  12.8276  12.8676  13.5252  13.7456
    13.7482  13.8673  13.9420  14.4173

          k = 0.6167 0.0000 0.0000 ( 20141 PWs)   bands (ev):

   -24.3385 -24.1522 -24.1309 -24.0266 -23.8964 -23.8697 -23.7348 -23.7307
   -23.7211 -23.5590 -10.0636  -9.5410  -5.7927  -2.1652  -1.6691   1.4441
     2.0936   2.1829   3.3912   3.9105   4.0968   4.6468   4.7746   5.0230
     5.2153   5.5276   5.5542   5.6271   6.1162   6.2982   6.6570   6.8739
     7.0090   7.0931   8.3430   8.5315   8.5882   8.6105   9.1581   9.2064
     9.3271   9.4017   9.4843  10.3702  11.2711  11.6300  11.6831  11.8351
    12.2276  12.3772  12.4576  12.6658  12.7982  12.8553  13.5867  13.8820
    13.8864  13.9946  14.0412  14.2360

          k = 0.6333 0.0000 0.0000 ( 20139 PWs)   bands (ev):

   -24.3397 -24.1487 -24.1341 -24.0269 -23.8919 -23.8742 -23.7346 -23.7294
   -23.7227 -23.5576  -9.9751  -9.6333  -5.8140  -2.0806  -1.7560   1.5847
     2.0706   2.1613   3.4518   3.8179   4.0157   4.7691   4.7940   5.0874
     5.1321   5.4690   5.4728   5.5506   6.2265   6.4193   6.5765   6.7912
     6.9446   7.0215   8.4565   8.6229   8.6666   8.7378   9.1193   9.1981
     9.3285   9.3353   9.4711  10.1281  11.2918  11.6273  11.7961  11.9679
    12.1439  12.3457  12.3771  12.7402  12.7774  12.9218  13.5764  14.0221
    14.0284  14.0519  14.1151  14.2688

          k = 0.6500 0.0000 0.0000 ( 20133 PWs)   bands (ev):

   -24.3405 -24.1450 -24.1375 -24.0270 -23.8875 -23.8786 -23.7344 -23.7279
   -23.7243 -23.5568  -9.8889  -9.7215  -5.8271  -1.9984  -1.8393   1.7281
     1.9979   2.1481   3.4697   3.8105   3.9384   4.7833   4.8834   5.0524
     5.2001   5.3876   5.4271   5.4812   6.3346   6.4988   6.5380   6.7116
     6.8950   6.9630   8.5543   8.6299   8.7502   8.8602   9.0359   9.1887
     9.2676   9.3798   9.4920   9.9321  11.3569  11.5677  11.9004  12.0638
    12.0999  12.2971  12.3010  12.6989  12.8854  12.9969  13.4467  14.1408
    14.1658  14.1741  14.2107  14.3925

          k = 0.6667 0.0000 0.0000 ( 20133 PWs)   bands (ev):

   -24.3407 -24.1412 -24.1412 -24.0271 -23.8830 -23.8830 -23.7344 -23.7261
   -23.7261 -23.5565  -9.8055  -9.8055  -5.8316  -1.9190  -1.9190   1.8741
     1.8741   2.1436   3.4678   3.8651   3.8651   4.7766   4.9761   4.9761
     5.3099   5.3099   5.4067   5.4389   6.4242   6.4242   6.6355   6.6355
     6.8739   6.9352   8.6128   8.6128   8.7785   8.9586   8.9586   9.1739
     9.2379   9.4564   9.4564   9.8527  11.4628  11.4628  11.9873  11.9873
    12.2302  12.2302  12.2397  12.6828  12.9872  12.9872  13.3604  14.2460
    14.2460  14.3081  14.3235  14.3235

          k = 0.6583 0.0144 0.0000 ( 20121 PWs)   bands (ev):

   -24.3405 -24.1452 -24.1373 -24.0270 -23.8874 -23.8786 -23.7344 -23.7280
   -23.7242 -23.5568  -9.8853  -9.7253  -5.8270  -1.9951  -1.8428   1.7070
     2.0226   2.1482   3.4740   3.7959   3.9444   4.7851   4.9033   5.0251
     5.2360   5.3145   5.4345   5.5174   6.3527   6.4738   6.5630   6.6734
     6.9017   6.9763   8.5794   8.5963   8.7506   8.8931   8.9902   9.2001
     9.2821   9.3375   9.5572   9.9064  11.3253  11.5974  11.9147  12.0461
    12.1657  12.1666  12.3631  12.7022  12.8291  13.0811  13.4282  14.0199
    14.0854  14.2330  14.4370  14.4641

          k = 0.6500 0.0289 0.0000 ( 20129 PWs)   bands (ev):

   -24.3397 -24.1494 -24.1334 -24.0269 -23.8918 -23.8743 -23.7346 -23.7300
   -23.7220 -23.5576  -9.9610  -9.6489  -5.8130  -2.0675  -1.7702   1.5085
     2.1624   2.1734   3.4908   3.7311   4.0327   4.8110   4.8342   5.0245
     5.1660   5.2704   5.5159   5.6595   6.2847   6.4779   6.4940   6.6529
     6.9838   7.0846   8.4940   8.5368   8.6759   8.8379   8.9613   9.2022
     9.2907   9.3937   9.6747  10.0143  11.1647  11.7382  11.8461  12.0711
    12.0806  12.1158  12.4483  12.6710  12.7628  13.1688  13.5557  13.7256
    13.8259  14.2263  14.3048  14.6182

          k = 0.6417 0.0433 0.0000 ( 20131 PWs)   bands (ev):

   -24.3385 -24.1539 -24.1295 -24.0266 -23.8961 -23.8700 -23.7348 -23.7320
   -23.7195 -23.5589 -10.0325  -9.5767  -5.7894  -2.1362  -1.7016   1.2894
     2.1865   2.3261   3.5108   3.6710   4.1268   4.7687   4.8498   4.9945
     5.0997   5.2340   5.6294   5.8130   6.2200   6.4286   6.4561   6.6122
     7.1009   7.2224   8.3319   8.4897   8.5721   8.7837   8.9129   9.0994
     9.4069   9.5310   9.8041  10.1415  10.9878  11.7817  11.8450  11.9676
    12.0670  12.0968  12.3464  12.7159  12.8595  13.2598  13.4356  13.5362
    13.7165  14.1786  14.2520  14.7742

          k = 0.6333 0.0577 0.0000 ( 20139 PWs)   bands (ev):

   -24.3368 -24.1587 -24.1255 -24.0262 -23.9003 -23.8657 -23.7352 -23.7341
   -23.7168 -23.5607 -10.0999  -9.5091  -5.7561  -2.2012  -1.6375   1.0581
     2.2206   2.4800   3.5269   3.6162   4.2277   4.7068   4.8888   4.9527
     5.0372   5.2219   5.7538   5.9715   6.1588   6.3668   6.4288   6.5690
     7.2333   7.3726   8.1405   8.4410   8.4488   8.7282   8.8607   9.0139
     9.5460   9.6775   9.9421  10.2784  10.8000  11.7215  11.8069  11.8718
    12.0438  12.1329  12.2044  12.8471  12.9811  13.1510  13.2624  13.3717
    13.8673  14.0556  14.3151  14.5602

          k = 0.6250 0.0722 0.0000 ( 20123 PWs)   bands (ev):

   -24.3347 -24.1637 -24.1216 -24.0258 -23.9044 -23.8616 -23.7361 -23.7356
   -23.7138 -23.5630 -10.1631  -9.4464  -5.7129  -2.2624  -1.5779   0.8203
     2.2649   2.6341   3.5354   3.5679   4.3364   4.6486   4.9070   4.9099
     4.9785   5.2504   5.8726   6.1012   6.1316   6.3087   6.4120   6.5308
     7.3647   7.5299   7.9455   8.3101   8.3925   8.6733   8.8093   8.9427
     9.6972   9.8258  10.0865  10.4214  10.6074  11.5999  11.6660  11.8447
    12.0096  12.0998  12.1812  12.8690  12.9491  13.0263  13.1225  13.5218
    13.9247  14.0267  14.2779  14.4116

          k = 0.6167 0.0866 0.0000 ( 20131 PWs)   bands (ev):

   -24.3321 -24.1690 -24.1178 -24.0252 -23.9085 -23.8576 -23.7381 -23.7361
   -23.7105 -23.5658 -10.2223  -9.3888  -5.6601  -2.3198  -1.5232   0.5798
     2.3194   2.7859   3.5283   3.5357   4.4515   4.5940   4.8612   4.9080
     4.9237   5.3225   5.9653   6.0472   6.2542   6.2841   6.4258   6.5089
     7.4504   7.6919   7.7979   8.1589   8.3453   8.6204   8.7607   8.8823
     9.8563   9.9632  10.2357  10.4230  10.5688  11.3685  11.6155  11.8027
    11.9679  12.0212  12.2004  12.5973  12.7001  13.1453  13.2721  13.7152
    13.7740  13.9999  14.1808  14.3821

          k = 0.6083 0.1010 0.0000 ( 20139 PWs)   bands (ev):

   -24.3291 -24.1745 -24.1141 -24.0246 -23.9124 -23.8536 -23.7400 -23.7367
   -23.7070 -23.5690 -10.2772  -9.3365  -5.5980  -2.3733  -1.4734   0.3398
     2.3840   2.9303   3.5026   3.5290   4.5432   4.5675   4.8169   4.8727
     4.8978   5.4244   5.9968   6.0094   6.2033   6.3800   6.4913   6.5541
     7.3747   7.8174   7.8570   7.9974   8.3001   8.5704   8.7162   8.8310
    10.0213  10.0227  10.3135  10.3881  10.7194  11.1295  11.5706  11.7582
    11.9163  11.9552  12.1881  12.3391  12.4297  13.2868  13.4265  13.5924
    13.7296  13.9439  14.2083  14.3864

          k = 0.6000 0.1155 0.0000 ( 20161 PWs)   bands (ev):

   -24.3256 -24.1803 -24.1105 -24.0239 -23.9162 -23.8499 -23.7419 -23.7373
   -23.7032 -23.5726 -10.3281  -9.2895  -5.5273  -2.4230  -1.4284   0.1023
     2.4584   3.0555   3.5023   3.5171   4.4961   4.6663   4.7750   4.8255
     4.9059   5.5423   5.9500   6.0055   6.1560   6.3904   6.6054   6.6977
     7.1984   7.8276   7.9467   8.0232   8.2574   8.5238   8.6773   8.7889
     9.8958  10.1908  10.3828  10.5422  10.8720  10.8963  11.5325  11.7144
    11.8343  11.8915  12.1177  12.1540  12.1678  13.3823  13.4188  13.4345
    13.6161  14.1356  14.1946  14.5442

          k = 0.5917 0.1299 0.0000 ( 20163 PWs)   bands (ev):

   -24.3218 -24.1862 -24.1071 -24.0231 -23.9198 -23.8462 -23.7437 -23.7380
   -23.6991 -23.5766 -10.3749  -9.2476  -5.4486  -2.4688  -1.3883  -0.1306
     2.5420   3.1404   3.5019   3.5485   4.4528   4.7124   4.7361   4.7822
     4.9709   5.6661   5.9069   5.9705   6.1121   6.3877   6.7419   6.8708
     7.0162   7.6513   8.0985   8.1858   8.2175   8.4808   8.6482   8.7582
     9.7006  10.3636  10.4659  10.6950  10.7205  11.0246  11.5035  11.6726
    11.6728  11.7952  11.9477  11.9857  12.1075  13.1552  13.1786  13.5264
    13.7756  14.1061  14.4545  14.7118

          k = 0.5833 0.1443 0.0000 ( 20135 PWs)   bands (ev):

   -24.3176 -24.1923 -24.1039 -24.0223 -23.9233 -23.8428 -23.7454 -23.7388
   -23.6947 -23.5810 -10.4176  -9.2107  -5.3631  -2.5107  -1.3529  -0.3573
     2.6344   3.1751   3.4847   3.6510   4.4132   4.7005   4.7105   4.7429
     5.0884   5.7871   5.8676   5.9151   6.0718   6.3980   6.7741   6.9626
     7.0531   7.4700   8.1806   8.2484   8.3307   8.4415   8.6419   8.7456
     9.4937  10.3350  10.5379  10.7767  10.8419  11.1720  11.4509  11.4880
    11.5864  11.6339  11.8487  11.9301  12.0555  12.9187  12.9195  13.5939
    13.9474  14.1318  14.7131  14.7746

          k = 0.5750 0.1588 0.0000 ( 20127 PWs)   bands (ev):

   -24.3130 -24.1987 -24.1010 -24.0214 -23.9265 -23.8395 -23.7470 -23.7396
   -23.6901 -23.5857 -10.4562  -9.1786  -5.2720  -2.5487  -1.3219  -0.5760
     2.7347   3.1772   3.4669   3.7919   4.3773   4.6685   4.6919   4.7076
     5.2256   5.8319   5.8413   5.8955   6.0347   6.4340   6.6277   7.1147
     7.2408   7.2849   8.1470   8.3750   8.4059   8.4190   8.6946   8.7680
     9.2872  10.1148  10.7082  10.9310  10.9732  11.1895  11.3379  11.3403
    11.4951  11.5980  11.7983  11.9090  12.0026  12.6639  12.6820  13.6168
    14.1212  14.2054  14.5642  14.9418

          k = 0.5667 0.1732 0.0000 ( 20141 PWs)   bands (ev):

   -24.3081 -24.2051 -24.0982 -24.0206 -23.9296 -23.8365 -23.7484 -23.7403
   -23.6853 -23.5906 -10.4907  -9.1510  -5.1773  -2.5827  -1.2952  -0.7848
     2.8419   3.1657   3.4493   3.9518   4.3452   4.6405   4.6694   4.6765
     5.3662   5.7472   5.8000   5.9839   6.0007   6.4870   6.5052   7.0973
     7.2923   7.4327   8.1167   8.3741   8.4350   8.4516   8.8086   8.8509
     9.0966   9.8887  10.8197  11.0189  11.0463  11.0732  11.1401  11.4564
    11.5401  11.5653  11.7573  11.9169  11.9518  12.4178  12.4484  13.6089
    14.2898  14.2913  14.3501  14.7286

          k = 0.5583 0.1876 0.0000 ( 20151 PWs)   bands (ev):

   -24.3029 -24.2117 -24.0958 -24.0197 -23.9324 -23.8338 -23.7497 -23.7411
   -23.6802 -23.5959 -10.5211  -9.1276  -5.0808  -2.6128  -1.2724  -0.9815
     2.9543   3.1497   3.4327   4.1208   4.3168   4.6168   4.6472   4.6501
     5.5006   5.6317   5.7718   5.9694   6.0552   6.3724   6.6127   6.9085
     7.4770   7.6280   8.0898   8.3460   8.4189   8.4804   8.8130   8.9919
     9.0506   9.6716  10.6579  10.8215  11.1095  11.1308  11.2860  11.5359
    11.5481  11.6337  11.7166  11.9048  11.9576  12.1931  12.2269  13.5835
    14.1326  14.3228  14.4216  14.5149

          k = 0.5500 0.2021 0.0000 ( 20163 PWs)   bands (ev):

   -24.2974 -24.2184 -24.0936 -24.0189 -23.9349 -23.8313 -23.7508 -23.7419
   -23.6750 -23.6013 -10.5475  -9.1081  -4.9853  -2.6389  -1.2534  -1.1636
     3.0703   3.1331   3.4175   4.2923   4.2930   4.5979   4.6268   4.6301
     5.4980   5.6181   5.7473   5.9399   6.1245   6.2852   6.7203   6.7475
     7.6647   7.8251   8.0664   8.3217   8.3889   8.4881   8.6481   9.1645
     9.1686   9.4914  10.4230  10.5740  11.1543  11.2567  11.4483  11.5101
    11.6022  11.6616  11.7666  11.8628  11.9174  12.0410  12.1214  13.5452
    13.9140  14.2422  14.3029  14.3667

          k = 0.5417 0.2165 0.0000 ( 20154 PWs)   bands (ev):

   -24.2916 -24.2252 -24.0918 -24.0181 -23.9370 -23.8292 -23.7518 -23.7425
   -23.6696 -23.6068 -10.5697  -9.0921  -4.8938  -2.6609  -1.3281  -1.2378
     3.1177   3.1869   3.4041   4.2714   4.4567   4.5845   4.6089   4.6261
     5.3531   5.7082   5.7266   5.9105   6.2087   6.2214   6.5352   6.8987
     7.8514   8.0180   8.0465   8.3011   8.3398   8.4909   8.4935   9.1447
     9.3525   9.4924  10.1846  10.3292  11.1599  11.3359  11.4879  11.5376
    11.5907  11.6423  11.7860  11.8267  11.9216  11.9558  12.2448  13.4907
    13.6949  14.0946  14.1007  14.1807

          k = 0.5333 0.2309 0.0000 ( 20166 PWs)   bands (ev):

   -24.2856 -24.2320 -24.0902 -24.0175 -23.9389 -23.8274 -23.7526 -23.7431
   -23.6641 -23.6125 -10.5880  -9.0795  -4.8101  -2.6790  -1.4713  -1.2254
     3.1044   3.3003   3.3929   4.2544   4.5453   4.5777   4.5940   4.7028
     5.2055   5.7097   5.7673   5.8771   6.1757   6.3141   6.3586   7.0566
     8.0290   8.0302   8.1389   8.2842   8.3059   8.3953   8.5104   8.9854
     9.5469   9.6526   9.9507  10.0902  11.1582  11.2527  11.3679  11.4694
    11.6379  11.6443  11.7968  11.8345  12.0219  12.0860  12.4044  13.4097
    13.4764  13.8924  13.9620  13.9761

          k = 0.5250 0.2454 0.0000 ( 20148 PWs)   bands (ev):

   -24.2794 -24.2389 -24.0890 -24.0169 -23.9404 -23.8259 -23.7533 -23.7436
   -23.6586 -23.6181 -10.6022  -9.0699  -4.7382  -2.6931  -1.5893  -1.2160
     3.0938   3.3839   3.4046   4.2412   4.5515   4.5794   4.5822   4.8659
     5.0641   5.6965   5.8016   5.8297   6.1438   6.2021   6.4326   7.2106
     8.0175   8.0475   8.1776   8.2711   8.3193   8.4695   8.5603   8.8339
     9.6742   9.7933   9.7939   9.9046  11.0684  11.1541  11.1602  11.4549
    11.6312  11.6460  11.7734  11.9995  12.1751  12.2509  12.5769  13.2604
    13.2917  13.7006  13.7697  13.8571

          k = 0.5167 0.2598 0.0000 ( 20148 PWs)   bands (ev):

   -24.2731 -24.2456 -24.0881 -24.0165 -23.9414 -23.8249 -23.7537 -23.7440
   -23.6534 -23.6234 -10.6123  -9.0632  -4.6826  -2.7032  -1.6778  -1.2094
     3.0861   3.3774   3.4916   4.2317   4.5470   4.5737   4.5915   4.9380
     5.0404   5.6871   5.7492   5.8201   6.0879   6.1226   6.5469   7.3428
     7.9493   8.0084   8.2383   8.2618   8.2690   8.6095   8.6721   8.7769
     9.4741   9.6031   9.9732  10.0627  10.8576  10.9452  11.1500  11.4444
    11.6242  11.6431  11.7566  12.1908  12.3555  12.4052  12.7495  13.0543
    13.1388  13.5281  13.5653  13.7924

          k = 0.5083 0.2742 0.0000 ( 20132 PWs)   bands (ev):

   -24.2669 -24.2522 -24.0876 -24.0162 -23.9421 -23.8242 -23.7540 -23.7442
   -23.6490 -23.6279 -10.6183  -9.0593  -4.6473  -2.7092  -1.7328  -1.2055
     3.0814   3.3735   3.5508   4.2260   4.5430   4.5686   4.6132   4.8403
     5.2046   5.6327   5.6814   5.8289   6.0292   6.1105   6.6343   7.4232
     7.9243   8.0030   8.1306   8.2562   8.3069   8.5960   8.8410   8.9349
     9.2540   9.3775  10.1781  10.2610  10.6451  10.7353  11.1472  11.4381
    11.6204  11.6397  11.7466  12.3917  12.5275  12.5393  12.7860  12.9682
    12.9918  13.3653  13.3950  13.7593

          k = 0.5000 0.2887 0.0000 ( 20152 PWs)   bands (ev):

   -24.2625 -24.2566 -24.0874 -24.0161 -23.9423 -23.8240 -23.7541 -23.7443
   -23.6470 -23.6299 -10.6204  -9.0580  -4.6352  -2.7112  -1.7514  -1.2042
     3.0798   3.3722   3.5719   4.2241   4.5416   4.5668   4.6283   4.7983
     5.2979   5.5523   5.6795   5.8316   6.0128   6.1066   6.6680   7.4440
     7.9619   8.0011   8.0482   8.2543   8.3164   8.5806   9.0272   9.0535
     9.1160   9.1865  10.3281  10.3994  10.4926  10.5934  11.1463  11.4360
    11.6192  11.6385  11.7432  12.5779  12.5952  12.5969  12.6640  12.8472
    13.1358  13.1989  13.3412  13.7492

          k = 0.4833 0.2791 0.0000 ( 20140 PWs)   bands (ev):

   -24.2622 -24.2563 -24.0875 -24.0161 -23.9425 -23.8238 -23.7541 -23.7444
   -23.6474 -23.6302 -10.6324  -9.0411  -4.6326  -2.7226  -1.7497  -1.1891
     3.0257   3.4273   3.5633   4.2132   4.4079   4.6305   4.7028   4.8207
     5.2654   5.4966   5.6460   5.7264   6.1209   6.1499   6.7246   7.4610
     7.9434   7.9506   8.0703   8.2423   8.3689   8.6218   9.0328   9.0559
     9.1186   9.1897  10.3292  10.4019  10.4948  10.5933  11.1067  11.3631
    11.6503  11.6622  11.7418  12.3798  12.5346  12.6664  12.7311  12.8747
    13.0680  13.2702  13.4767  13.8058

          k = 0.4667 0.2694 0.0000 ( 20146 PWs)   bands (ev):

   -24.2612 -24.2554 -24.0877 -24.0159 -23.9432 -23.8231 -23.7540 -23.7445
   -23.6485 -23.6311 -10.6670  -8.9922  -4.6251  -2.7556  -1.7446  -1.1453
     2.9175   3.5373   3.5374   4.1873   4.2662   4.6370   4.8463   4.8789
     5.1731   5.3481   5.5740   5.5903   6.2529   6.2791   6.8664   7.5044
     7.8471   7.8907   8.1387   8.2291   8.4774   8.7206   9.0502   9.0632
     9.1264   9.1993  10.3319  10.4094  10.5014  10.5918  11.0149  11.2353
    11.5018  11.7623  11.8652  12.1469  12.3750  12.6735  12.8054  12.9315
    13.0141  13.4525  13.7116  13.9681

[...]
     5.0336   5.2030   5.4674   5.5041   6.3838   6.4399   7.0422   7.5586
     7.7318   7.8171   8.2356   8.2565   8.5980   8.8462   9.0754   9.0827
     9.1395   9.2164  10.3355  10.4221  10.5123  10.5837  10.9035  11.0954
    11.3125  11.8367  11.9597  12.0124  12.1649  12.6854  12.8479  12.9865
    12.9986  13.6858  13.9728  14.2130

          k = 0.4333 0.2502 0.0000 ( 20169 PWs)   bands (ev):

   -24.2574 -24.2518 -24.0884 -24.0153 -23.9456 -23.8204 -23.7539 -23.7451
   -23.6531 -23.6349 -10.7879  -8.8140  -4.5950  -2.8713  -1.7243  -0.9861
     2.6751   3.4356   3.7593   3.9969   4.1391   4.6629   4.8409   4.8605
     5.0047   5.2507   5.3537   5.4709   6.5279   6.6036   7.2058   7.6118
     7.6170   7.7445   8.2632   8.4215   8.7132   8.9824   9.0924   9.1359
     9.1581   9.2440  10.3381  10.4397  10.5272  10.5548  10.7867  10.9560
    11.1404  11.6410  11.9365  12.0590  12.1670  12.7020  12.8833  13.0029
    13.0334  13.9312  14.2467  14.5092

          k = 0.4167 0.2406 0.0000 ( 20157 PWs)   bands (ev):

   -24.2546 -24.2490 -24.0889 -24.0149 -23.9474 -23.8185 -23.7538 -23.7456
   -23.6564 -23.6377 -10.8649  -8.6941  -4.5727  -2.9457  -1.7095  -0.8793
     2.5547   3.3643   3.8119   3.8746   4.1279   4.6653   4.6823   4.6904
     5.0089   5.2227   5.4171   5.5059   6.6778   6.7714   7.3091   7.5088
     7.6608   7.7033   8.3096   8.6254   8.8115   9.1131   9.1142   9.1824
     9.2166   9.2929  10.3362  10.4625  10.4803  10.5455  10.6699  10.8540
    11.0043  11.4157  11.7036  12.2060  12.3263  12.7233  12.9211  13.0183
    13.0761  14.1616  14.5281  14.6582

          k = 0.4000 0.2309 0.0000 ( 20153 PWs)   bands (ev):

   -24.2512 -24.2457 -24.0896 -24.0143 -23.9494 -23.8163 -23.7537 -23.7461
   -23.6605 -23.6410 -10.9479  -8.5587  -4.5455  -3.0263  -1.6919  -0.7593
     2.4373   3.2841   3.7369   3.7889   4.1251   4.4559   4.6227   4.7060
     4.9672   5.1120   5.5862   5.6048   6.8248   6.9436   7.3160   7.4152
     7.7070   7.7144   8.3687   8.8573   8.8885   9.1407   9.2102   9.2139
     9.3262   9.3890  10.3233  10.3673  10.4902  10.5550  10.5660  10.8088
    10.9041  11.2097  11.4730  12.3577  12.4885  12.7490  12.9663  13.0414
    13.1190  14.3340  14.5454  14.7500

          k = 0.3833 0.2213 0.0000 ( 20169 PWs)   bands (ev):

   -24.2471 -24.2419 -24.0903 -24.0137 -23.9517 -23.8139 -23.7537 -23.7468
   -23.6653 -23.6449 -11.0342  -8.4107  -4.5136  -3.1105  -1.6718  -0.6288
     2.3233   3.1985   3.6193   3.6412   4.1275   4.2380   4.6616   4.7339
     4.9071   5.0070   5.7405   5.7662   6.9475   7.1190   7.2579   7.3575
     7.7374   7.7526   8.4269   8.9481   9.1000   9.1719   9.2618   9.2716
     9.4567   9.5326  10.2667  10.2899  10.4413  10.5231  10.5855  10.7769
    10.8591  11.0410  11.2503  12.5072  12.6516  12.7790  13.0230  13.0708
    13.1655  14.3748  14.4274  14.6315

          k = 0.3667 0.2117 0.0000 ( 20153 PWs)   bands (ev):

   -24.2426 -24.2374 -24.0911 -24.0129 -23.9542 -23.8112 -23.7538 -23.7475
   -23.6707 -23.6492 -11.1216  -8.2522  -4.4771  -3.1963  -1.6496  -0.4901
     2.2130   3.1103   3.4250   3.5100   4.0155   4.1309   4.7485   4.7661
     4.8474   4.9282   5.8956   5.9531   6.9958   7.1692   7.3051   7.3861
     7.7260   7.7996   8.4699   8.9965   9.2076   9.2520   9.3223   9.4217
     9.5931   9.6973  10.2087  10.2293  10.3277  10.5611  10.5943  10.7495
    10.8696  10.9278  11.0466  12.6479  12.8125  12.8131  13.0960  13.1060
    13.2191  14.2207  14.3301  14.5084

          k = 0.3500 0.2021 0.0000 ( 20151 PWs)   bands (ev):

   -24.2374 -24.2325 -24.0920 -24.0121 -23.9568 -23.8084 -23.7540 -23.7483
   -23.6767 -23.6539 -11.2088  -8.0847  -4.4362  -3.2822  -1.6259  -0.3447
     2.1066   3.0216   3.1855   3.4014   3.7912   4.1304   4.7433   4.7988
     4.8026   4.9809   6.0610   6.1458   6.9626   7.0798   7.4878   7.5094
     7.6607   7.8490   8.4978   9.0370   9.2475   9.3091   9.3720   9.6936
     9.7049   9.8713  10.1575  10.1822  10.2212  10.5595  10.6044  10.7772
    10.8754  10.8959  10.9022  12.7726  12.8507  12.9650  13.1464  13.1901
    13.2843  13.9566  14.2447  14.3717

          k = 0.3333 0.1925 0.0000 ( 20145 PWs)   bands (ev):

   -24.2318 -24.2270 -24.0929 -24.0113 -23.9595 -23.8054 -23.7544 -23.7492
   -23.6834 -23.6590 -11.2946  -7.9094  -4.3911  -3.3671  -1.6014  -0.1939
     2.0039   2.9337   2.9361   3.2980   3.5670   4.1210   4.6601   4.7685
     4.8432   5.1349   6.2293   6.3439   6.9028   6.9876   7.5353   7.6759
     7.6772   7.9018   8.5242   9.0683   9.2912   9.3608   9.4234   9.7201
     9.9850  10.0440  10.1128  10.1618  10.1703  10.4350  10.6533  10.8451
    10.8710  10.8875  10.9477  12.8770  12.8908  13.0993  13.1921  13.3029
    13.3655  13.6561  14.1682  14.2059

          k = 0.3167 0.1828 0.0000 ( 20137 PWs)   bands (ev):

   -24.2256 -24.2210 -24.0939 -24.0104 -23.9622 -23.8023 -23.7551 -23.7501
   -23.6906 -23.6642 -11.3782  -7.7272  -4.3420  -3.4503  -1.5769  -0.0389
     1.9046   2.6859   2.8479   3.1995   3.3444   4.0994   4.5694   4.7607
     4.8880   5.3127   6.3867   6.5468   6.8540   6.8954   7.3650   7.8595
     7.8653   7.9584   8.5619   9.0819   9.3375   9.4155   9.4778   9.6269
    10.0313  10.0880  10.2551  10.2590  10.2751  10.2838  10.7091  10.8613
    10.8999  10.9956  11.0836  12.9316  12.9613  13.2076  13.2427  13.3148
    13.4536  13.4546  13.9716  14.0511

          k = 0.3000 0.1732 0.0000 ( 20131 PWs)   bands (ev):

   -24.2190 -24.2146 -24.0950 -24.0094 -23.9650 -23.7993 -23.7561 -23.7510
   -23.6984 -23.6696 -11.4591  -7.5388  -4.2892  -3.5310  -1.5537   0.1193
     1.8080   2.4400   2.7647   3.1060   3.1246   4.0652   4.4805   4.7762
     4.9369   5.5016   6.4940   6.7517   6.8045   6.8621   7.1641   8.0192
     8.0507   8.0529   8.6169   9.0576   9.3840   9.4746   9.5200   9.5360
     9.9545  10.0346  10.0641  10.4290  10.4450  10.5793  10.7797  10.9030
    10.9541  11.0587  11.3292  12.9600  12.9687  13.0823  13.2931  13.2982
    13.4901  13.5522  13.7507  13.9525

          k = 0.2833 0.1636 0.0000 ( 20117 PWs)   bands (ev):

   -24.2120 -24.2077 -24.0961 -24.0084 -23.9678 -23.7962 -23.7575 -23.7521
   -23.7066 -23.6750 -11.5367  -7.3447  -4.2328  -3.6089  -1.5332   0.2801
     1.7125   2.2034   2.6847   2.9086   3.0176   4.0209   4.3952   4.8125
     4.9898   5.6970   6.5078   6.7008   6.9213   6.9725   6.9997   8.0842
     8.2343   8.2429   8.6937   8.9750   9.4225   9.4581   9.5384   9.5981
     9.8836   9.8894   9.9724  10.5916  10.6362  10.7852  10.9491  10.9570
    11.0330  11.1308  11.6111  12.6644  12.9901  13.1246  13.3441  13.3583
    13.4223  13.5557  13.6138  13.9727

          k = 0.2667 0.1540 0.0000 ( 20103 PWs)   bands (ev):

   -24.2045 -24.2004 -24.0971 -24.0073 -23.9705 -23.7931 -23.7594 -23.7531
   -23.7152 -23.6802 -11.6109  -7.1454  -4.1734  -3.6835  -1.5173   0.4424
     1.6147   1.9825   2.6084   2.6972   2.9341   3.9700   4.3141   4.8660
     5.0467   5.8941   6.4661   6.5680   6.7636   7.1481   7.1939   8.1537
     8.4014   8.4176   8.7987   8.8603   9.4234   9.4388   9.6071   9.6628
     9.7473   9.8423   9.9108  10.7452  10.8242  10.8715  11.0192  11.1407
    11.2165  11.2457  11.9132  12.3465  12.9655  13.1860  13.2129  13.4175
    13.4228  13.4579  13.6199  13.9972

          k = 0.2500 0.1443 0.0000 ( 20087 PWs)   bands (ev):

   -24.1968 -24.1928 -24.0982 -24.0062 -23.9732 -23.7901 -23.7620 -23.7542
   -23.7242 -23.6852 -11.6812  -6.9414  -4.1112  -3.7545  -1.5083   0.6057
     1.5065   1.7879   2.4913   2.5359   2.8557   3.9158   4.2374   4.9332
     5.1075   6.0731   6.3926   6.4086   6.6492   7.3491   7.4162   8.2278
     8.4851   8.5460   8.8313   8.9385   9.3320   9.4306   9.6806   9.7117
     9.7231   9.8217   9.8603  10.8797  10.9463  11.0000  11.0880  11.2802
    11.3230  11.5587  12.0345  12.2207  12.8611  13.0325  13.2411  13.3709
    13.4908  13.5271  13.5963  13.9666

          k = 0.2333 0.1347 0.0000 ( 20093 PWs)   bands (ev):

   -24.1888 -24.1849 -24.0993 -24.0051 -23.9758 -23.7872 -23.7654 -23.7553
   -23.7335 -23.6897 -11.7476  -6.7330  -4.0467  -3.8217  -1.5094   0.7689
     1.3765   1.6344   2.2915   2.4676   2.7822   3.8606   4.1652   5.0112
     5.1720   6.0617   6.3485   6.3659   6.5853   7.5618   7.6442   8.3063
     8.3752   8.6684   8.9752   9.1113   9.1749   9.4135   9.7396   9.7511
     9.7591   9.8339   9.8623  10.9941  11.0222  11.1525  11.1627  11.4334
    11.4591  11.7476  11.8697  12.4944  12.7047  12.8840  13.2816  13.3920
    13.5591  13.5633  13.5976  13.9266

          k = 0.2167 0.1251 0.0000 ( 20073 PWs)   bands (ev):

   -24.1806 -24.1768 -24.1003 -24.0041 -23.9783 -23.7844 -23.7695 -23.7563
   -23.7430 -23.6936 -11.8097  -6.5204  -3.9804  -3.8848  -1.5237   0.9314
     1.2268   1.5231   2.0986   2.4036   2.7138   3.8063   4.0977   5.0976
     5.2401   5.8512   6.2903   6.4290   6.6439   7.7782   7.8771   8.2167
     8.3894   8.7773   9.0002   9.1700   9.3059   9.3874   9.7032   9.8181
     9.8426   9.8772   9.9290  11.0888  11.1004  11.2430  11.2793  11.3797
    11.6223  11.7066  12.1510  12.5405  12.5596  12.9584  13.2979  13.4394
    13.5150  13.5989  13.6652  13.7607

          k = 0.2000 0.1155 0.0000 ( 20069 PWs)   bands (ev):

   -24.1722 -24.1684 -24.1013 -24.0030 -23.9807 -23.7817 -23.7744 -23.7574
   -23.7527 -23.6969 -11.8676  -6.3042  -3.9438  -3.9130  -1.5553   1.0766
     1.0920   1.4385   1.9135   2.3440   2.6504   3.7540   4.0347   5.1904
     5.3116   5.6209   6.2360   6.3914   6.8386   7.9439   8.1086   8.1146
     8.4769   8.8232   8.8811   9.2998   9.4287   9.5018   9.6711   9.8975
     9.9309   9.9448  10.0154  11.0483  11.1797  11.2474  11.3285  11.3898
    11.7873  11.8999  12.2209  12.4150  12.6230  13.1846  13.2858  13.4126
    13.4693  13.4728  13.5908  13.6675

          k = 0.1833 0.1058 0.0000 ( 20085 PWs)   bands (ev):

   -24.1638 -24.1600 -24.1022 -24.0020 -23.9829 -23.7800 -23.7792 -23.7624
   -23.7584 -23.6996 -11.9211  -6.0844  -3.9985  -3.8451  -1.6077   0.9413
     1.2498   1.3685   1.7369   2.2888   2.5920   3.7044   3.9762   5.2872
     5.3863   5.3936   6.1869   6.3405   7.0618   7.8417   8.2781   8.3560
     8.5689   8.6486   8.9843   9.2714   9.5748   9.6233   9.7721   9.9851
    10.0240  10.0312  10.1124  10.7951  11.2571  11.3253  11.4192  11.4929
    11.8857  12.0818  12.1197  12.3464  12.8994  13.2200  13.2736  13.2903
    13.3294  13.3683  13.3755  13.6414

          k = 0.1667 0.0962 0.0000 ( 20113 PWs)   bands (ev):

   -24.1554 -24.1516 -24.1031 -24.0010 -23.9850 -23.7861 -23.7769 -23.7721
   -23.7594 -23.7018 -11.9702  -5.8616  -4.0487  -3.7774  -1.6841   0.8286
     1.3078   1.4036   1.5698   2.2383   2.5387   3.6581   3.9222   5.1748
     5.3853   5.4637   6.1445   6.2911   7.2946   7.6894   8.4786   8.5114
     8.6005   8.6650   9.0891   9.2235   9.5467   9.8237   9.9810  10.0793
    10.1218  10.1266  10.2219  10.5507  11.3242  11.4246  11.5150  11.5893
    11.8328  11.9287  12.3483  12.4401  13.0516  13.0753  13.1553  13.1600
    13.2300  13.2444  13.3195  13.6050

          k = 0.1500 0.0866 0.0000 ( 20091 PWs)   bands (ev):

   -24.1473 -24.1432 -24.1038 -24.0000 -23.9869 -23.7926 -23.7816 -23.7747
   -23.7604 -23.7034 -12.0147  -5.6360  -4.0943  -3.7110  -1.7858   0.7419
     1.2541   1.4131   1.5520   2.1925   2.4903   3.6156   3.8726   4.9675
     5.4808   5.5435   6.1102   6.2457   7.5334   7.5454   8.3143   8.7514
     8.7652   8.8456   9.1732   9.1954   9.5193   9.9858  10.1519  10.1794
    10.1846  10.2242  10.3564  10.4419  11.3573  11.5293  11.6156  11.6243
    11.7549  11.8123  12.5754  12.6207  12.8719  12.8804  12.9473  12.9820
    13.1504  13.2121  13.5130  13.5204

          k = 0.1333 0.0770 0.0000 ( 20087 PWs)   bands (ev):

   -24.1394 -24.1350 -24.1044 -23.9991 -23.9887 -23.7994 -23.7909 -23.7727
   -23.7612 -23.7047 -12.0546  -5.4079  -4.1354  -3.6467  -1.9128   0.6811
     1.2062   1.2679   1.6934   2.1514   2.4469   3.5771   3.8271   4.7744
     5.5685   5.6250   6.0865   6.2046   7.4182   7.7765   8.1567   8.8690
     8.9724   9.0843   9.1403   9.2972   9.5146   9.9166  10.1965  10.2851
    10.3307  10.3494  10.5373  10.5763  11.3155  11.4897  11.6375  11.7207
    11.7788  11.8280  12.6527  12.6556  12.6903  12.7917  12.8369  12.8919
    12.9288  13.1923  13.4779  13.8050

          k = 0.1167 0.0674 0.0000 ( 20049 PWs)   bands (ev):

   -24.1321 -24.1272 -24.1047 -23.9983 -23.9902 -23.8061 -23.7997 -23.7709
   -23.7620 -23.7056 -12.0899  -5.1779  -4.1718  -3.5857  -2.0630   0.6437
     1.1354   1.1635   1.8261   2.1150   2.4086   3.5427   3.7857   4.5977
     5.6412   5.7072   6.0760   6.1683   7.3141   8.0071   8.0231   8.9761
     9.0026   9.2776   9.2863   9.3877   9.5799   9.7246  10.3260  10.3960
    10.4403  10.4838  10.7430  10.7906  11.2042  11.3374  11.7472  11.8253
    11.8297  11.9234  12.4281  12.4869  12.5060  12.6058  12.7046  12.9986
    13.1068  13.2239  13.4452  13.5357

          k = 0.1000 0.0577 0.0000 ( 20023 PWs)   bands (ev):

   -24.1256 -24.1199 -24.1046 -23.9976 -23.9916 -23.8125 -23.8079 -23.7693
   -23.7628 -23.7062 -12.1206  -4.9463  -4.2034  -3.5291  -2.2333   0.6259
     1.0168   1.1257   1.9481   2.0836   2.3753   3.5127   3.7480   4.4398
     5.6926   5.7889   6.0796   6.1367   7.2397   7.8668   8.2722   8.9174
     9.0856   9.3270   9.4625   9.5292   9.6201   9.7517  10.4569  10.5121
    10.5501  10.6101  10.8875  11.0311  11.0688  11.2584  11.8522  11.9088
    11.9401  11.9747  12.2197  12.3224  12.3302  12.4268  12.5076  13.0347
    13.1906  13.2763  13.3841  13.4246

          k = 0.0833 0.0481 0.0000 ( 20005 PWs)   bands (ev):

   -24.1202 -24.1133 -24.1040 -23.9970 -23.9928 -23.8185 -23.8153 -23.7680
   -23.7634 -23.7067 -12.1465  -4.7139  -4.2302  -3.4783  -2.4198   0.6229
     0.9134   1.0927   2.0521   2.0620   2.3470   3.4871   3.7139   4.3030
     5.7214   5.8684   6.0925   6.1100   7.2014   7.7376   8.5225   8.7940
     9.1963   9.3215   9.3798   9.6742   9.8288   9.9875  10.5898  10.6332
    10.6471  10.7336  10.8349  10.9456  11.2837  11.3870  11.8196  11.9213
    11.9992  12.0286  12.1862  12.1919  12.2023  12.2636  12.3525  12.8693
    13.0013  13.0426  13.3741  13.5217

          k = 0.0667 0.0385 0.0000 ( 20015 PWs)   bands (ev):

   -24.1165 -24.1074 -24.1025 -23.9964 -23.9937 -23.8238 -23.8217 -23.7669
   -23.7639 -23.7070 -12.1678  -4.4816  -4.2523  -3.4345  -2.6188   0.6296
     0.8265   1.0645   2.0345   2.1516   2.3238   3.4661   3.6833   4.1897
     5.7328   5.9430   6.0881   6.1058   7.2026   7.6223   8.6428   8.7723
     9.2940   9.3060   9.3089   9.8142  10.0894  10.2412  10.6658  10.6808
    10.7271  10.7591  10.8686  10.9097  11.5385  11.5733  11.6202  11.8689
    11.9480  12.0092  12.0973  12.1953  12.2177  12.2212  12.3737  12.5664
    12.6869  13.0118  13.3317  13.3722

          k = 0.0500 0.0289 0.0000 ( 20023 PWs)   bands (ev):

   -24.1144 -24.1027 -24.1004 -23.9960 -23.9945 -23.8282 -23.8270 -23.7660
   -23.7643 -23.7072 -12.1844  -4.2694  -4.2508  -3.3988  -2.8262   0.6413
     0.7573   1.0414   2.0175   2.2278   2.3056   3.4497   3.6568   4.1014
     5.7343   6.0093   6.0710   6.1128   7.2396   7.5243   8.4818   9.0190
     9.2383   9.2969   9.4109   9.9503  10.3540  10.4128  10.5771  10.6113
    10.8707  10.8896  10.9901  10.9971  11.3439  11.6825  11.7929  11.8468
    11.8506  11.8742  11.9541  12.2647  12.2824  12.3261  12.3407  12.3513
    12.5131  12.9739  13.2182  13.2399

          k = 0.0333 0.0192 0.0000 ( 20043 PWs)   bands (ev):

   -24.1133 -24.0991 -24.0982 -23.9957 -23.9950 -23.8315 -23.8309 -23.7654
   -23.7646 -23.7074 -12.1962  -4.2817  -4.0250  -3.3725  -3.0365   0.6537
     0.7071   1.0238   2.0053   2.2842   2.2926   3.4379   3.6355   4.0390
     5.7319   6.0588   6.0625   6.1132   7.2991   7.4484   8.3330   9.2044
     9.2548   9.2908   9.5038  10.0545  10.3170  10.4749  10.6127  10.8371
    11.0232  11.0236  11.0281  11.1219  11.2229  11.5486  11.6367  11.7188
    11.7589  11.9672  12.0423  12.0903  12.1496  12.3960  12.4614  12.4711
    12.6372  12.9090  13.0733  13.0833

          k = 0.0167 0.0096 0.0000 ( 20045 PWs)   bands (ev):

   -24.1129 -24.0969 -24.0967 -23.9955 -23.9954 -23.8335 -23.8334 -23.7650
   -23.7648 -23.7074 -12.2033  -4.2890  -3.8164  -3.3563  -3.2364   0.6629
     0.6765   1.0128   1.9980   2.2848   2.3189   3.4308   3.6215   4.0021
     5.7291   6.0515   6.0976   6.1110   7.3575   7.3997   8.2218   9.1860
     9.2806   9.4767   9.5720  10.0044  10.3202  10.3980  10.8450  10.8805
    11.1203  11.1574  11.1826  11.2571  11.3254  11.4065  11.4890  11.5664
    11.5942  11.6990  11.7576  12.3247  12.3887  12.5016  12.6026  12.6116
    12.7696  12.8027  12.9155  12.9359

          k = 0.0000 0.0000 0.0000 ( 20025 PWs)   bands (ev):

   -24.1128 -24.0961 -24.0961 -23.9955 -23.9955 -23.8342 -23.8342 -23.7649
   -23.7649 -23.7075 -12.2057  -4.2915  -3.6991  -3.3508  -3.3508   0.6663
     0.6663   1.0089   1.9956   2.2822   2.3306   3.4285   3.6166   3.9899
     5.7280   6.0491   6.1098   6.1098   7.3829   7.3829   8.1790   9.1801
     9.2789   9.5979   9.5979   9.9127  10.3689  10.3689  10.8026  10.9684
    11.2482  11.2482  11.3655  11.3655  11.3934  11.3934  11.4060  11.4525
    11.4525  11.5154  11.5564  12.4615  12.5538  12.5538  12.6910  12.6910
    12.7473  12.7744  12.8423  12.8423

     Writing all to output data dir ../tmp/stanene.save/

     init_run     :      2.44s CPU      3.59s WALL (       1 calls)
     electrons    :   4963.41s CPU  12144.88s WALL (       1 calls)

     Called by init_run:
     wfcinit      :      0.00s CPU      0.00s WALL (       1 calls)
     wfcinit:atom :      0.18s CPU      0.15s WALL (      91 calls)
     wfcinit:wfcr :     83.94s CPU    130.70s WALL (      91 calls)
     potinit      :      0.32s CPU      0.36s WALL (       1 calls)
     hinit0       :      0.53s CPU      0.54s WALL (       1 calls)

     Called by electrons:
     c_bands      :   4963.32s CPU  12144.82s WALL (       1 calls)
     v_of_rho     :      0.13s CPU      0.16s WALL (       1 calls)
     v_h          :      0.01s CPU      0.01s WALL (       1 calls)
     v_xc         :      0.12s CPU      0.15s WALL (       1 calls)
     newd         :      1.46s CPU      2.51s WALL (       1 calls)

     Called by c_bands:
     init_us_2    :      0.14s CPU      0.12s WALL (      91 calls)
     init_us_2:cp :      0.14s CPU      0.12s WALL (      91 calls)
     cegterg      :   4868.87s CPU  12003.76s WALL (     305 calls)

     Called by sum_band:

     Called by *egterg:
     cdiaghg      :   1042.52s CPU   1640.84s WALL (    5295 calls)
     cegterg:over :   1389.24s CPU   2510.57s WALL (    5204 calls)
     cegterg:upda :    150.78s CPU    283.60s WALL (    5204 calls)
     cegterg:last :    197.99s CPU    321.37s WALL (    2685 calls)
     h_psi        :   1616.48s CPU   6644.04s WALL (    5600 calls)
     s_psi        :     55.13s CPU    107.96s WALL (    5600 calls)
     g_psi        :      2.45s CPU      2.31s WALL (    5204 calls)

     Called by h_psi:
     h_psi:calbec :    852.90s CPU   5708.20s WALL (    5600 calls)
     vloc_psi     :    624.65s CPU    600.94s WALL (    5600 calls)
     add_vuspsi   :    136.38s CPU    331.36s WALL (    5600 calls)

     General routines
     calbec       :    852.83s CPU   5707.30s WALL (    5600 calls)
     fft          :      0.41s CPU      0.43s WALL (      13 calls)
     ffts         :      0.17s CPU      0.17s WALL (       1 calls)
     fftw         :    548.11s CPU    517.29s WALL (  307196 calls)
     interpolate  :      0.18s CPU      0.18s WALL (       1 calls)
     davcio       :      0.66s CPU      3.02s WALL (     182 calls)

     Parallel routines

     PWSCF        :      1h22m CPU      3h22m WALL


   This run was terminated on:  20:43:31  24Jun2024            

=------------------------------------------------------------------------------=
   JOB DONE.
=------------------------------------------------------------------------------=
