
     Program PWSCF v.7.2 starts on 20Jun2024 at 21: 3: 5 

     This program is part of the open-source Quantum ESPRESSO suite
     for quantum simulation of materials; please cite
         "P. Giannozzi et al., J. Phys.:Condens. Matter 21 395502 (2009);
         "P. Giannozzi et al., J. Phys.:Condens. Matter 29 465901 (2017);
         "P. Giannozzi et al., J. Chem. Phys. 152 154105 (2020);
          URL http://www.quantum-espresso.org", 
     in publications or presentations arising from this work. More details at
     http://www.quantum-espresso.org/quote

     Parallel version (MPI), running on     6 processors

     MPI processes distributed on     1 nodes
     6031 MiB available memory on the printing compute node when the environment starts

     Waiting for input...
     Reading input from standard input

     Current dimensions of program PWSCF are:
     Max number of different atomic species (ntypx) = 10
     Max number of k-points (npk) =  40000
     Max angular momentum in pseudopotentials (lmaxx) =  4

     R & G space division:  proc/nbgrp/npool/nimage =       6
     Subspace diagonalization in iterative solution of the eigenvalue problem:
     a serial algorithm will be used


     Parallelization info
     --------------------
     sticks:   dense  smooth     PW     G-vecs:    dense   smooth      PW
     Min         431     214     61                75773    26776    4007
     Max         432     215     62                75788    26799    4017
     Sum        2587    1285    367               454685   160699   24069

     Using Slab Decomposition



     bravais-lattice index     =            4
     lattice parameter (alat)  =       8.8439  a.u.
     unit-cell volume          =    2560.0529 (a.u.)^3
     number of atoms/cell      =            2
     number of atomic types    =            1
     number of electrons       =        28.00
     number of Kohn-Sham states=           18
     kinetic-energy cutoff     =      60.0000  Ry
     charge density cutoff     =     480.0000  Ry
     scf convergence threshold =      1.0E-07
     mixing beta               =       0.7000
     number of iterations used =            8  plain     mixing
     energy convergence thresh.=      1.0E-05
     force convergence thresh. =      1.0E-04
     press convergence thresh. =      5.0E-01
     Exchange-correlation= SLA  PW   PSX  PSC
                           (   1   4  10   8   0   0   0)
     nstep                     =           50


     celldm(1)=   8.843918  celldm(2)=   0.000000  celldm(3)=   4.273504
     celldm(4)=   0.000000  celldm(5)=   0.000000  celldm(6)=   0.000000

     crystal axes: (cart. coord. in units of alat)
               a(1) = (   1.000000   0.000000   0.000000 )  
               a(2) = (  -0.500000   0.866025   0.000000 )  
               a(3) = (   0.000000   0.000000   4.273504 )  

     reciprocal axes: (cart. coord. in units 2 pi/alat)
               b(1) = (  1.000000  0.577350 -0.000000 )  
               b(2) = (  0.000000  1.154701  0.000000 )  
               b(3) = (  0.000000 -0.000000  0.234000 )  


     PseudoPot. # 1 for Sn read from file:
     ../pseudo/sn_pbesol_v1.4.uspp.F.UPF
     MD5 check sum: 463fec1d5456f1e96ec1bfcad4b7b038
     Pseudo is Ultrasoft + core correction, Zval = 14.0
     Generated by new atomic code, or converted to UPF format
     Using radial grid of  891 points,  6 beta functions with: 
                l(1) =   0
                l(2) =   0
                l(3) =   1
                l(4) =   1
                l(5) =   2
                l(6) =   2
     Q(r) pseudized with  8 coefficients,  rinner =    1.350   1.350   1.350
                                                       1.350   1.350

     atomic species   valence    mass     pseudopotential
        Sn            14.00   118.71000     Sn( 1.00)

     24 Sym. Ops., with inversion, found



   Cartesian axes

     site n.     atom                  positions (alat units)
         1           Sn  tau(   1) = (   0.0000000   0.5773503   2.1367521  )
         2           Sn  tau(   2) = (   0.5000000   0.2886751   2.1367521  )

     number of k points=    61  Methfessel-Paxton smearing, width (Ry)=  0.0200
                       cart. coord. in units 2pi/alat
        k(    1) = (   0.0000000   0.0000000   0.0000000), wk =   0.0034722
        k(    2) = (   0.0000000   0.0481125   0.0000000), wk =   0.0208333
        k(    3) = (   0.0000000   0.0962250   0.0000000), wk =   0.0208333
        k(    4) = (   0.0000000   0.1443376   0.0000000), wk =   0.0208333
        k(    5) = (   0.0000000   0.1924501   0.0000000), wk =   0.0208333
        k(    6) = (   0.0000000   0.2405626   0.0000000), wk =   0.0208333
        k(    7) = (   0.0000000   0.2886751   0.0000000), wk =   0.0208333
        k(    8) = (   0.0000000   0.3367877   0.0000000), wk =   0.0208333
        k(    9) = (   0.0000000   0.3849002   0.0000000), wk =   0.0208333
        k(   10) = (   0.0000000   0.4330127   0.0000000), wk =   0.0208333
        k(   11) = (   0.0000000   0.4811252   0.0000000), wk =   0.0208333
        k(   12) = (   0.0000000   0.5292377   0.0000000), wk =   0.0208333
        k(   13) = (   0.0000000  -0.5773503   0.0000000), wk =   0.0104167
        k(   14) = (   0.0416667   0.0721688   0.0000000), wk =   0.0208333
        k(   15) = (   0.0416667   0.1202813   0.0000000), wk =   0.0416667
        k(   16) = (   0.0416667   0.1683938   0.0000000), wk =   0.0416667
        k(   17) = (   0.0416667   0.2165064   0.0000000), wk =   0.0416667
        k(   18) = (   0.0416667   0.2646189   0.0000000), wk =   0.0416667
        k(   19) = (   0.0416667   0.3127314   0.0000000), wk =   0.0416667
        k(   20) = (   0.0416667   0.3608439   0.0000000), wk =   0.0416667
        k(   21) = (   0.0416667   0.4089564   0.0000000), wk =   0.0416667
        k(   22) = (   0.0416667   0.4570690   0.0000000), wk =   0.0416667
        k(   23) = (   0.0416667   0.5051815   0.0000000), wk =   0.0416667
        k(   24) = (   0.0416667   0.5532940   0.0000000), wk =   0.0416667
        k(   25) = (   0.0833333   0.1443376   0.0000000), wk =   0.0208333
        k(   26) = (   0.0833333   0.1924501   0.0000000), wk =   0.0416667
        k(   27) = (   0.0833333   0.2405626   0.0000000), wk =   0.0416667
        k(   28) = (   0.0833333   0.2886751   0.0000000), wk =   0.0416667
        k(   29) = (   0.0833333   0.3367877   0.0000000), wk =   0.0416667
        k(   30) = (   0.0833333   0.3849002   0.0000000), wk =   0.0416667
        k(   31) = (   0.0833333   0.4330127   0.0000000), wk =   0.0416667
        k(   32) = (   0.0833333   0.4811252   0.0000000), wk =   0.0416667
        k(   33) = (   0.0833333   0.5292377   0.0000000), wk =   0.0416667
        k(   34) = (   0.0833333   0.5773503   0.0000000), wk =   0.0208333
        k(   35) = (   0.1250000   0.2165064   0.0000000), wk =   0.0208333
        k(   36) = (   0.1250000   0.2646189   0.0000000), wk =   0.0416667
        k(   37) = (   0.1250000   0.3127314   0.0000000), wk =   0.0416667
        k(   38) = (   0.1250000   0.3608439   0.0000000), wk =   0.0416667
        k(   39) = (   0.1250000   0.4089564   0.0000000), wk =   0.0416667
        k(   40) = (   0.1250000   0.4570690   0.0000000), wk =   0.0416667
        k(   41) = (   0.1250000   0.5051815   0.0000000), wk =   0.0416667
        k(   42) = (   0.1250000   0.5532940   0.0000000), wk =   0.0416667
        k(   43) = (   0.1666667   0.2886751   0.0000000), wk =   0.0208333
        k(   44) = (   0.1666667   0.3367877   0.0000000), wk =   0.0416667
        k(   45) = (   0.1666667   0.3849002   0.0000000), wk =   0.0416667
        k(   46) = (   0.1666667   0.4330127   0.0000000), wk =   0.0416667
        k(   47) = (   0.1666667   0.4811252   0.0000000), wk =   0.0416667
        k(   48) = (   0.1666667   0.5292377   0.0000000), wk =   0.0416667
        k(   49) = (   0.1666667   0.5773503   0.0000000), wk =   0.0208333
        k(   50) = (   0.2083333   0.3608439   0.0000000), wk =   0.0208333
        k(   51) = (   0.2083333   0.4089564   0.0000000), wk =   0.0416667
        k(   52) = (   0.2083333   0.4570690   0.0000000), wk =   0.0416667
        k(   53) = (   0.2083333   0.5051815   0.0000000), wk =   0.0416667
        k(   54) = (   0.2083333   0.5532940   0.0000000), wk =   0.0416667
        k(   55) = (   0.2500000   0.4330127   0.0000000), wk =   0.0208333
        k(   56) = (   0.2500000   0.4811252   0.0000000), wk =   0.0416667
        k(   57) = (   0.2500000   0.5292377   0.0000000), wk =   0.0416667
        k(   58) = (   0.2500000   0.5773503   0.0000000), wk =   0.0208333
        k(   59) = (   0.2916667   0.5051815   0.0000000), wk =   0.0208333
        k(   60) = (   0.2916667   0.5532940   0.0000000), wk =   0.0416667
        k(   61) = (   0.3333333   0.5773503   0.0000000), wk =   0.0069444

     Dense  grid:   454685 G-vectors     FFT dimensions: (  64,  64, 270)

     Smooth grid:   160699 G-vectors     FFT dimensions: (  45,  45, 192)

     Estimated max dynamical RAM per process >     338.60 MB

     Estimated total dynamical RAM >       1.98 GB

     Initial potential from superposition of free atoms

     starting charge      25.9999, renormalised to      28.0000

     negative rho (up, down):  6.174E-04 0.000E+00
     Starting wfcs are   18 randomized atomic wfcs

     total cpu time spent up to now is       96.6 secs

     Self-consistent Calculation

     iteration #  1     ecut=    60.00 Ry     beta= 0.70
     Davidson diagonalization with overlap
     ethr =  1.00E-02,  avg # of iterations =  6.4

     negative rho (up, down):  8.382E-06 0.000E+00

     total cpu time spent up to now is      503.3 secs

     total energy              =    -316.96328890 Ry
     estimated scf accuracy    <       2.28917082 Ry

     iteration #  2     ecut=    60.00 Ry     beta= 0.70
     Davidson diagonalization with overlap
     ethr =  8.18E-03,  avg # of iterations =  2.0

     negative rho (up, down):  1.207E-05 0.000E+00

     total cpu time spent up to now is      708.5 secs

     total energy              =    -317.71544613 Ry
     estimated scf accuracy    <       0.22991123 Ry

     iteration #  3     ecut=    60.00 Ry     beta= 0.70
     Davidson diagonalization with overlap
     ethr =  8.21E-04,  avg # of iterations =  3.5

     negative rho (up, down):  4.491E-05 0.000E+00

     total cpu time spent up to now is      963.4 secs

     total energy              =    -317.73329319 Ry
     estimated scf accuracy    <       0.00831016 Ry

     iteration #  4     ecut=    60.00 Ry     beta= 0.70
     Davidson diagonalization with overlap
     c_bands:  1 eigenvalues not converged
     ethr =  2.97E-05,  avg # of iterations =  8.2

     negative rho (up, down):  5.090E-05 0.000E+00

     total cpu time spent up to now is     1439.8 secs

     total energy              =    -317.73767346 Ry
     estimated scf accuracy    <       0.00215966 Ry

     iteration #  5     ecut=    60.00 Ry     beta= 0.70
     Davidson diagonalization with overlap
     c_bands:  1 eigenvalues not converged
     ethr =  7.71E-06,  avg # of iterations =  5.2

     negative rho (up, down):  5.375E-05 0.000E+00

     total cpu time spent up to now is     1766.7 secs

     total energy              =    -317.73800260 Ry
     estimated scf accuracy    <       0.00015409 Ry

     iteration #  6     ecut=    60.00 Ry     beta= 0.70
     Davidson diagonalization with overlap
     ethr =  5.50E-07,  avg # of iterations =  5.5

     negative rho (up, down):  5.394E-05 0.000E+00

     total cpu time spent up to now is     2115.8 secs

     total energy              =    -317.73807654 Ry
     estimated scf accuracy    <       0.00000551 Ry

     iteration #  7     ecut=    60.00 Ry     beta= 0.70
     Davidson diagonalization with overlap
     ethr =  1.97E-08,  avg # of iterations =  4.3

     negative rho (up, down):  5.385E-05 0.000E+00

     total cpu time spent up to now is     2424.4 secs

     total energy              =    -317.73807936 Ry
     estimated scf accuracy    <       0.00000184 Ry

     iteration #  8     ecut=    60.00 Ry     beta= 0.70
     Davidson diagonalization with overlap
     ethr =  6.59E-09,  avg # of iterations =  2.4

     negative rho (up, down):  5.379E-05 0.000E+00

     total cpu time spent up to now is     2634.3 secs

     End of self-consistent calculation

          k = 0.0000 0.0000 0.0000 ( 20001 PWs)   bands (ev):

   -24.1483 -24.1369 -24.1369 -24.0295 -24.0295 -23.8713 -23.8713 -23.7958
   -23.7958 -23.7366 -12.3392  -4.3926  -3.8295  -3.4553  -3.4553   0.5505
     0.5505   1.0149

          k = 0.0000 0.0481 0.0000 ( 20007 PWs)   bands (ev):

   -24.1495 -24.1415 -24.1398 -24.0299 -24.0288 -23.8670 -23.8662 -23.7966
   -23.7954 -23.7364 -12.3244  -4.3772  -4.2588  -3.4892  -3.0447   0.5304
     0.6144   1.0373

          k = 0.0000 0.0962 0.0000 ( 19993 PWs)   bands (ev):

   -24.1581 -24.1542 -24.1427 -24.0310 -24.0268 -23.8552 -23.8521 -23.7990
   -23.7943 -23.7359 -12.2800  -4.8350  -4.3311  -3.5839  -2.5351   0.5012
     0.7990   1.0973

          k = 0.0000 0.1443 0.0000 ( 20039 PWs)   bands (ev):

   -24.1750 -24.1723 -24.1420 -24.0328 -24.0234 -23.8389 -23.8319 -23.8028
   -23.7925 -23.7345 -12.2061  -5.4146  -4.2548  -3.7224  -2.1027   0.5335
     1.0870   1.1881

          k = 0.0000 0.1925 0.0000 ( 20061 PWs)   bands (ev):

   -24.1955 -24.1930 -24.1401 -24.0351 -24.0189 -23.8216 -23.8084 -23.8080
   -23.7903 -23.7316 -12.1033  -5.9838  -4.1489  -3.8853  -1.8057   0.7023
     1.3095   1.3131

          k = 0.0000 0.2406 0.0000 ( 20045 PWs)   bands (ev):

   -24.2170 -24.2143 -24.1376 -24.0377 -24.0134 -23.8143 -23.8063 -23.7877
   -23.7838 -23.7258 -11.9721  -6.5360  -4.0558  -4.0146  -1.6648   0.9217
     1.0357   1.4690

          k = 0.0000 0.2887 0.0000 ( 20055 PWs)   bands (ev):

   -24.2378 -24.2348 -24.1349 -24.0404 -24.0070 -23.8214 -23.7953 -23.7849
   -23.7598 -23.7164 -11.8138  -7.0658  -4.2212  -3.8537  -1.6420   0.5153
     1.4558   1.7157

          k = 0.0000 0.3368 0.0000 ( 20085 PWs)   bands (ev):

   -24.2569 -24.2534 -24.1321 -24.0431 -24.0001 -23.8291 -23.7890 -23.7823
   -23.7377 -23.7043 -11.6305  -7.5679  -4.3723  -3.6689  -1.6815   0.1086
     1.7594   2.2000

          k = 0.0000 0.3849 0.0000 ( 20131 PWs)   bands (ev):

   -24.2734 -24.2694 -24.1295 -24.0456 -23.9931 -23.8369 -23.7860 -23.7799
   -23.7184 -23.6913 -11.4262  -8.0361  -4.5027  -3.4649  -1.7435  -0.2855
     2.0103   2.8117

          k = 0.0000 0.4330 0.0000 ( 20143 PWs)   bands (ev):

   -24.2868 -24.2823 -24.1272 -24.0477 -23.9864 -23.8441 -23.7850 -23.7778
   -23.7027 -23.6795 -11.2088  -8.4606  -4.6080  -3.2502  -1.8057  -0.6527
     2.2757   3.1529

          k = 0.0000 0.4811 0.0000 ( 20129 PWs)   bands (ev):

   -24.2966 -24.2918 -24.1254 -24.0492 -23.9809 -23.8502 -23.7848 -23.7762
   -23.6910 -23.6703 -10.9951  -8.8231  -4.6851  -3.0417  -1.8559  -0.9726
     2.5631   3.3504

          k = 0.0000 0.5292 0.0000 ( 20120 PWs)   bands (ev):

   -24.3026 -24.2975 -24.1243 -24.0502 -23.9771 -23.8543 -23.7848 -23.7753
   -23.6839 -23.6645 -10.8212  -9.0868  -4.7321  -2.8743  -1.8881  -1.2077
     2.8658   3.4833

          k = 0.0000-0.5774 0.0000 ( 20096 PWs)   bands (ev):

   -24.3046 -24.2995 -24.1239 -24.0505 -23.9757 -23.8557 -23.7849 -23.7749
   -23.6815 -23.6625 -10.7495  -9.1885  -4.7479  -2.8061  -1.8992  -1.2986
     3.0865   3.3779

          k = 0.0417 0.0722 0.0000 ( 20005 PWs)   bands (ev):

   -24.1562 -24.1466 -24.1445 -24.0307 -24.0274 -23.8590 -23.8566 -23.7982
   -23.7947 -23.7361 -12.2948  -4.6784  -4.3465  -3.5573  -2.6628   0.4971
     0.7470   1.0779

          k = 0.0417 0.1203 0.0000 ( 20013 PWs)   bands (ev):

   -24.1727 -24.1593 -24.1442 -24.0322 -24.0247 -23.8450 -23.8396 -23.8013
   -23.7932 -23.7351 -12.2356  -5.2070  -4.2852  -3.6829  -2.2247   0.4739
     1.0040   1.1517

          k = 0.0417 0.1684 0.0000 ( 20052 PWs)   bands (ev):

   -24.1938 -24.1765 -24.1425 -24.0342 -24.0207 -23.8282 -23.8182 -23.8059
   -23.7911 -23.7329 -12.1473  -5.7561  -4.1941  -3.8438  -1.8590   0.5366
     1.2538   1.3626

          k = 0.0417 0.2165 0.0000 ( 20055 PWs)   bands (ev):

   -24.2164 -24.1955 -24.1402 -24.0367 -24.0156 -23.8117 -23.8117 -23.7951
   -23.7886 -23.7281 -12.0302  -6.3014  -4.0740  -4.0200  -1.6303   0.7509
     1.0915   1.3882

          k = 0.0417 0.2646 0.0000 ( 20075 PWs)   bands (ev):

   -24.2389 -24.2147 -24.1375 -24.0395 -24.0095 -23.8185 -23.7986 -23.7859
   -23.7722 -23.7196 -11.8853  -6.8322  -4.1961  -3.9262  -1.5432   0.6966
     1.1225   1.5597

          k = 0.0417 0.3127 0.0000 ( 20077 PWs)   bands (ev):

   -24.2599 -24.2328 -24.1347 -24.0422 -24.0028 -23.8261 -23.7903 -23.7832
   -23.7508 -23.7072 -11.7142  -7.3413  -4.3609  -3.7530  -1.5501   0.2935
     1.5652   1.8122

          k = 0.0417 0.3608 0.0000 ( 20090 PWs)   bands (ev):

   -24.2785 -24.2490 -24.1320 -24.0449 -23.9956 -23.8339 -23.7861 -23.7806
   -23.7318 -23.6929 -11.5197  -7.8220  -4.5068  -3.5579  -1.6004  -0.1045
     1.8849   2.2892

          k = 0.0417 0.4090 0.0000 ( 20107 PWs)   bands (ev):

   -24.2941 -24.2626 -24.1295 -24.0472 -23.9886 -23.8416 -23.7845 -23.7783
   -23.7158 -23.6789 -11.3074  -8.2662  -4.6285  -3.3471  -1.6621  -0.4842
     2.1493   2.8826

          k = 0.0417 0.4571 0.0000 ( 20118 PWs)   bands (ev):

   -24.3062 -24.2731 -24.1274 -24.0490 -23.9823 -23.8485 -23.7841 -23.7765
   -23.7033 -23.6671 -11.0886  -8.6605  -4.7225  -3.1323  -1.7181  -0.8292
     2.4272   3.2240

          k = 0.0417 0.5052 0.0000 ( 20132 PWs)   bands (ev):

   -24.3144 -24.2803 -24.1259 -24.0503 -23.9774 -23.8538 -23.7842 -23.7752
   -23.6948 -23.6588 -10.8880  -8.9790  -4.7863  -2.9379  -1.7591  -1.1121
     2.7246   3.3432

          k = 0.0417 0.5533 0.0000 ( 20126 PWs)   bands (ev):

   -24.3185 -24.2840 -24.1252 -24.0510 -23.9747 -23.8567 -23.7843 -23.7745
   -23.6905 -23.6545 -10.7558  -9.1703  -4.8186  -2.8114  -1.7806  -1.2832
     3.0185   3.3860

          k = 0.0833 0.1443 0.0000 ( 20045 PWs)   bands (ev):

   -24.1936 -24.1685 -24.1451 -24.0340 -24.0213 -23.8306 -23.8218 -23.8052
   -23.7914 -23.7332 -12.1619  -5.6706  -4.2092  -3.8437  -1.8594   0.4464
     1.2362   1.3546

          k = 0.0833 0.1925 0.0000 ( 20059 PWs)   bands (ev):

   -24.2168 -24.1823 -24.1440 -24.0364 -24.0166 -23.8144 -23.8105 -23.8019
   -23.7890 -23.7288 -12.0593  -6.1667  -4.1038  -4.0355  -1.5406   0.5001
     1.1844   1.3501

          k = 0.0833 0.2406 0.0000 ( 20083 PWs)   bands (ev):

   -24.2404 -24.1980 -24.1419 -24.0391 -24.0108 -23.8170 -23.7997 -23.7863
   -23.7827 -23.7203 -11.9283  -6.6691  -4.2342  -3.9700  -1.3401   0.7051
     0.8185   1.4942

          k = 0.0833 0.2887 0.0000 ( 20094 PWs)   bands (ev):

   -24.2631 -24.2139 -24.1394 -24.0420 -24.0041 -23.8244 -23.7896 -23.7835
   -23.7646 -23.7071 -11.7703  -7.1636  -4.4241  -3.8095  -1.2689   0.4341
     1.0728   1.6709

          k = 0.0833 0.3368 0.0000 ( 20094 PWs)   bands (ev):

   -24.2836 -24.2288 -24.1367 -24.0448 -23.9968 -23.8325 -23.7844 -23.7808
   -23.7477 -23.6908 -11.5871  -7.6404  -4.5953  -3.6251  -1.2810   0.0455
     1.5493   1.8892

          k = 0.0833 0.3849 0.0000 ( 20088 PWs)   bands (ev):

   -24.3013 -24.2419 -24.1340 -24.0474 -23.9893 -23.8406 -23.7824 -23.7782
   -23.7327 -23.6745 -11.3828  -8.0905  -4.7414  -3.4213  -1.3287  -0.3347
     2.0044   2.2299

          k = 0.0833 0.4330 0.0000 ( 20111 PWs)   bands (ev):

   -24.3156 -24.2526 -24.1318 -24.0495 -23.9822 -23.8484 -23.7820 -23.7761
   -23.7202 -23.6603 -11.1647  -8.5027  -4.8582  -3.2061  -1.3832  -0.6922
     2.3125   2.7764

          k = 0.0833 0.4811 0.0000 ( 20119 PWs)   bands (ev):

   -24.3261 -24.2605 -24.1300 -24.0512 -23.9761 -23.8549 -23.7822 -23.7745
   -23.7109 -23.6493 -10.9493  -8.8585  -4.9433  -2.9960  -1.4293  -1.0066
     2.6058   3.1160

          k = 0.0833 0.5292 0.0000 ( 20109 PWs)   bands (ev):

   -24.3325 -24.2653 -24.1288 -24.0522 -23.9719 -23.8594 -23.7826 -23.7735
   -23.7051 -23.6425 -10.7724  -9.1202  -4.9949  -2.8258  -1.4593  -1.2405
     2.9077   3.1180

          k = 0.0833 0.5774 0.0000 ( 20128 PWs)   bands (ev):

   -24.3347 -24.2669 -24.1284 -24.0526 -23.9704 -23.8610 -23.7827 -23.7731
   -23.7032 -23.6402 -10.6988  -9.2222  -5.0122  -2.7557  -1.4697  -1.3320
     3.1143   3.1229

          k = 0.1250 0.2165 0.0000 ( 20077 PWs)   bands (ev):

   -24.2410 -24.1911 -24.1445 -24.0391 -24.0111 -23.8166 -23.7995 -23.7871
   -23.7864 -23.7204 -11.9427  -6.6094  -4.2585  -3.9846  -1.2247   0.5151
     0.8619   2.3509

          k = 0.1250 0.2646 0.0000 ( 20086 PWs)   bands (ev):

   -24.2647 -24.2019 -24.1438 -24.0420 -24.0045 -23.8238 -23.7867 -23.7836
   -23.7749 -23.7066 -11.7984  -7.0633  -4.4825  -3.8379  -0.9960   0.5113
     0.6678   1.6310

          k = 0.1250 0.3127 0.0000 ( 20092 PWs)   bands (ev):

   -24.2867 -24.2134 -24.1421 -24.0450 -23.9971 -23.8319 -23.7806 -23.7801
   -23.7617 -23.6891 -11.6278  -7.5146  -4.6898  -3.6658  -0.8967   0.1468
     0.9987   1.8167

          k = 0.1250 0.3608 0.0000 ( 20080 PWs)   bands (ev):

   -24.3063 -24.2243 -24.1400 -24.0478 -23.9892 -23.8404 -23.7782 -23.7779
   -23.7482 -23.6710 -11.4336  -7.9525  -4.8705  -3.4714  -0.8907  -0.2196
     1.4679   2.0339

          k = 0.1250 0.4090 0.0000 ( 20114 PWs)   bands (ev):

   -24.3227 -24.2338 -24.1379 -24.0504 -23.9812 -23.8490 -23.7782 -23.7754
   -23.7361 -23.6545 -11.2208  -8.3661  -5.0190  -3.2604  -0.9249  -0.5755
     2.0094   2.2884

          k = 0.1250 0.4571 0.0000 ( 20113 PWs)   bands (ev):

   -24.3353 -24.2414 -24.1361 -24.0524 -23.9739 -23.8569 -23.7789 -23.7735
   -23.7266 -23.6412 -10.9998  -8.7409  -5.1322  -3.0437  -0.9668  -0.9051
     2.4907   2.6630

          k = 0.1250 0.5052 0.0000 ( 20113 PWs)   bands (ev):

   -24.3440 -24.2467 -24.1347 -24.0538 -23.9680 -23.8631 -23.7796 -23.7721
   -23.7199 -23.6320 -10.7941  -9.0506  -5.2085  -2.8445  -1.1815  -1.0008
     2.8098   2.8476

          k = 0.1250 0.5533 0.0000 ( 20114 PWs)   bands (ev):

   -24.3484 -24.2493 -24.1340 -24.0545 -23.9647 -23.8665 -23.7800 -23.7714
   -23.7165 -23.6272 -10.6556  -9.2416  -5.2468  -2.7120  -1.3532  -1.0192
     2.8210   3.0921

          k = 0.1667 0.2887 0.0000 ( 20089 PWs)   bands (ev):

   -24.2878 -24.2072 -24.1448 -24.0451 -23.9972 -23.8317 -23.7806 -23.7738
   -23.7714 -23.6884 -11.6414  -7.4690  -4.7289  -3.6793  -0.6838   0.1830
     0.7275   1.7981

          k = 0.1667 0.3368 0.0000 ( 20084 PWs)   bands (ev):

   -24.3088 -24.2134 -24.1449 -24.0482 -23.9890 -23.8405 -23.7776 -23.7717
   -23.7607 -23.6691 -11.4592  -7.8750  -4.9525  -3.4966  -0.4936  -0.1560
     0.9688   1.9952

          k = 0.1667 0.3849 0.0000 ( 20093 PWs)   bands (ev):

   -24.3270 -24.2196 -24.1442 -24.0510 -23.9803 -23.8498 -23.7749 -23.7726
   -23.7496 -23.6509 -11.2551  -8.2710  -5.1424  -3.2937  -0.4956  -0.4331
     1.3929   2.2208

          k = 0.1667 0.4330 0.0000 ( 20113 PWs)   bands (ev):

   -24.3416 -24.2251 -24.1432 -24.0534 -23.9717 -23.8588 -23.7740 -23.7725
   -23.7404 -23.6356 -11.0355  -8.6452  -5.2930  -3.0774  -0.8235  -0.4385
     1.9267   2.4729

          k = 0.1667 0.4811 0.0000 ( 20107 PWs)   bands (ev):

   -24.3524 -24.2295 -24.1422 -24.0553 -23.9640 -23.8668 -23.7753 -23.7708
   -23.7335 -23.6240 -10.8148  -8.9792  -5.4017  -2.8625  -1.1212  -0.4620
     2.5055   2.6272

          k = 0.1667 0.5292 0.0000 ( 20106 PWs)   bands (ev):

   -24.3590 -24.2322 -24.1415 -24.0564 -23.9585 -23.8726 -23.7762 -23.7697
   -23.7292 -23.6168 -10.6275  -9.2355  -5.4672  -2.6823  -1.3522  -0.4820
     2.5699   3.0047

          k = 0.1667 0.5774 0.0000 ( 20103 PWs)   bands (ev):

   -24.3612 -24.2331 -24.1412 -24.0568 -23.9564 -23.8748 -23.7765 -23.7693
   -23.7278 -23.6144 -10.5465  -9.3397  -5.4891  -2.6052  -1.4464  -0.4894
     2.5494   3.1478

          k = 0.2083 0.3608 0.0000 ( 20087 PWs)   bands (ev):

   -24.3284 -24.2139 -24.1472 -24.0513 -23.9799 -23.8501 -23.7746 -23.7679
   -23.7570 -23.6497 -11.2666  -8.2366  -5.1883  -3.3049  -0.4669  -0.1513
     1.0658   2.2035

          k = 0.2083 0.4090 0.0000 ( 20099 PWs)   bands (ev):

   -24.3448 -24.2149 -24.1487 -24.0540 -23.9704 -23.8600 -23.7720 -23.7686
   -23.7505 -23.6326 -11.0539  -8.5907  -5.3844  -3.0948  -0.7775   0.0356
     1.3742   2.4392

          k = 0.2083 0.4571 0.0000 ( 20115 PWs)   bands (ev):

   -24.3576 -24.2160 -24.1495 -24.0563 -23.9610 -23.8697 -23.7701 -23.7699
   -23.7446 -23.6190 -10.8292  -8.9253  -5.5344  -2.8751  -1.0760   0.0922
     1.8552   2.4860

          k = 0.2083 0.5052 0.0000 ( 20122 PWs)   bands (ev):

   -24.3662 -24.2170 -24.1499 -24.0579 -23.9530 -23.8780 -23.7714 -23.7684
   -23.7404 -23.6096 -10.6123  -9.2175  -5.6354  -2.6651  -1.3401   0.0979
     2.3876   2.3981

          k = 0.2083 0.5533 0.0000 ( 20133 PWs)   bands (ev):

   -24.3706 -24.2176 -24.1500 -24.0587 -23.9480 -23.8831 -23.7722 -23.7676
   -23.7382 -23.6047 -10.4560  -9.4120  -5.6862  -2.5157  -1.5172   0.0940
     2.3378   2.8359

          k = 0.2500 0.4330 0.0000 ( 20133 PWs)   bands (ev):

   -24.3593 -24.2105 -24.1529 -24.0567 -23.9599 -23.8708 -23.7696 -23.7668
   -23.7499 -23.6173 -10.8344  -8.9053  -5.5816  -2.8796  -1.0592   0.4213
     1.4927   2.4345

          k = 0.2500 0.4811 0.0000 ( 20115 PWs)   bands (ev):

   -24.3699 -24.2069 -24.1565 -24.0587 -23.9496 -23.8813 -23.7677 -23.7668
   -23.7483 -23.6058 -10.6060  -9.2033  -5.7262  -2.6576  -1.3299   0.6218
     1.8291   2.2923

          k = 0.2500 0.5292 0.0000 ( 20109 PWs)   bands (ev):

   -24.3764 -24.2045 -24.1589 -24.0599 -23.9410 -23.8901 -23.7673 -23.7665
   -23.7468 -23.5987 -10.3955  -9.4564  -5.8141  -2.4552  -1.5621   0.6852
     2.2042   2.2762

          k = 0.2500 0.5774 0.0000 ( 20109 PWs)   bands (ev):

   -24.3786 -24.2036 -24.1597 -24.0603 -23.9373 -23.8939 -23.7676 -23.7661
   -23.7463 -23.5963 -10.2917  -9.5745  -5.8436  -2.3564  -1.6710   0.6978
     2.1744   2.5272

          k = 0.2917 0.5052 0.0000 ( 20105 PWs)   bands (ev):

   -24.3784 -24.1984 -24.1635 -24.0603 -23.9381 -23.8930 -23.7661 -23.7643
   -23.7511 -23.5967 -10.3741  -9.4714  -5.8585  -2.4336  -1.5777   1.0564
     1.9038   2.1583

          k = 0.2917 0.5533 0.0000 ( 20115 PWs)   bands (ev):

   -24.3826 -24.1921 -24.1690 -24.0612 -23.9285 -23.9027 -23.7653 -23.7629
   -23.7528 -23.5921 -10.1681  -9.6955  -5.9258  -2.2363  -1.7867   1.2625
     2.0899   2.0944

          k = 0.3333 0.5774 0.0000 ( 20085 PWs)   bands (ev):

   -24.3847 -24.1802 -24.1802 -24.0617 -23.9156 -23.9156 -23.7649 -23.7581
   -23.7581 -23.5898  -9.9336  -9.9336  -5.9637  -2.0123  -2.0123   1.7614
     1.7614   2.0513

     the Fermi energy is    -2.3731 ev

!    total energy              =    -317.73807966 Ry
     estimated scf accuracy    <       0.00000008 Ry
     smearing contrib. (-TS)   =       0.00028789 Ry
     internal energy E=F+TS    =    -317.73836755 Ry

     The total energy is F=E-TS. E is the sum of the following terms:
     one-electron contribution =    -884.78660514 Ry
     hartree contribution      =     449.07341078 Ry
     xc contribution           =     -85.00347696 Ry
     ewald contribution        =     202.97830378 Ry

     convergence has been achieved in   8 iterations

     negative rho (up, down):  5.379E-05 0.000E+00

     Forces acting on atoms (cartesian axes, Ry/au):

     atom    1 type  1   force =     0.00000000    0.00000000    0.00000000
     atom    2 type  1   force =     0.00000000   -0.00000000    0.00000000
     The non-local contrib.  to forces
     atom    1 type  1   force =     0.00000000    0.00000000    0.00000000
     atom    2 type  1   force =     0.00000000   -0.00000000   -0.00000000
     The ionic contribution  to forces
     atom    1 type  1   force =    -0.00000003    0.00000002    0.00000000
     atom    2 type  1   force =     0.00000003   -0.00000002    0.00000000
     The local contribution  to forces
     atom    1 type  1   force =    -0.00000000    0.00000041   -0.00000000
     atom    2 type  1   force =     0.00000036    0.00000021   -0.00000000
     The core correction contribution to forces
     atom    1 type  1   force =     0.00000000    0.00000004   -0.00000000
     atom    2 type  1   force =     0.00000004    0.00000002   -0.00000000
     The Hubbard contrib.    to forces
     atom    1 type  1   force =     0.00000000    0.00000000    0.00000000
     atom    2 type  1   force =     0.00000000    0.00000000    0.00000000
     The SCF correction term to forces
     atom    1 type  1   force =    -0.00000000    0.00000000    0.00000000
     atom    2 type  1   force =     0.00000000    0.00000000    0.00000000

     Total force =     0.000000     Total SCF correction =     0.000000


     Computing stress (Cartesian axis) and pressure


     negative rho (up, down):  5.379E-05 0.000E+00
          total   stress  (Ry/bohr**3)                   (kbar)     P=        0.05
   0.00000488  -0.00000000   0.00000000            0.72       -0.00        0.00
  -0.00000000   0.00000488  -0.00000000           -0.00        0.72       -0.00
   0.00000000  -0.00000000  -0.00000865            0.00       -0.00       -1.27


     BFGS Geometry Optimization
     Energy error            =      0.0E+00 Ry
     Gradient error          =      2.5E-24 Ry/Bohr
     Cell gradient error     =      7.2E-01 kbar

     number of scf cycles    =   1
     number of bfgs steps    =   0

     enthalpy           new  =    -317.7380796636 Ry

     new trust radius        =       0.0012337554 bohr
     new conv_thr            =       0.0000001000 Ry

     new unit-cell volume =   2560.67715 a.u.^3 (   379.45320 Ang^3 )
     density =      1.03898 g/cm^3

CELL_PARAMETERS (alat=  8.84391826)
   1.000121920  -0.000000000   0.000000000
  -0.500060960   0.866130990   0.000000000
   0.000000000   0.000000000   4.273504274

ATOMIC_POSITIONS (crystal)
Sn            0.3333333330        0.6666666660        0.5000000000
Sn            0.6666666660        0.3333333330        0.5000000000



     Writing config-only to output data dir ../tmp/stanene.save/
     NEW-OLD atomic charge density approx. for the potential

     negative rho (up, down):  6.071E-05 0.000E+00
     extrapolated charge   28.00634, renormalised to   28.00000

     total cpu time spent up to now is     2768.2 secs

     Self-consistent Calculation

     iteration #  1     ecut=    60.00 Ry     beta= 0.70
     Davidson diagonalization with overlap
     ethr =  1.00E-06,  avg # of iterations =  2.5

     Threshold (ethr) on eigenvalues was too large:
     Diagonalizing with lowered threshold

     Davidson diagonalization with overlap
     ethr =  4.10E-08,  avg # of iterations =  1.2

     negative rho (up, down):  5.540E-05 0.000E+00

     total cpu time spent up to now is     3133.0 secs

     total energy              =    -317.73806749 Ry
     estimated scf accuracy    <       0.00001097 Ry

     iteration #  2     ecut=    60.00 Ry     beta= 0.70
     Davidson diagonalization with overlap
     ethr =  3.92E-08,  avg # of iterations =  3.2

     negative rho (up, down):  5.411E-05 0.000E+00

     total cpu time spent up to now is     3397.2 secs

     total energy              =    -317.73808714 Ry
     estimated scf accuracy    <       0.00001918 Ry

     iteration #  3     ecut=    60.00 Ry     beta= 0.70
     Davidson diagonalization with overlap
     ethr =  3.92E-08,  avg # of iterations =  2.0

     negative rho (up, down):  5.374E-05 0.000E+00

     total cpu time spent up to now is     3585.9 secs

     total energy              =    -317.73808717 Ry
     estimated scf accuracy    <       0.00000395 Ry

     iteration #  4     ecut=    60.00 Ry     beta= 0.70
     Davidson diagonalization with overlap
     ethr =  1.41E-08,  avg # of iterations =  1.9

     negative rho (up, down):  5.367E-05 0.000E+00

     total cpu time spent up to now is     3764.1 secs

     total energy              =    -317.73808679 Ry
     estimated scf accuracy    <       0.00000129 Ry

     iteration #  5     ecut=    60.00 Ry     beta= 0.70
     Davidson diagonalization with overlap
     ethr =  4.61E-09,  avg # of iterations =  2.0

     negative rho (up, down):  5.362E-05 0.000E+00

     total cpu time spent up to now is     3954.5 secs

     total energy              =    -317.73808698 Ry
     estimated scf accuracy    <       0.00000018 Ry

     iteration #  6     ecut=    60.00 Ry     beta= 0.70
     Davidson diagonalization with overlap
     ethr =  6.38E-10,  avg # of iterations =  2.0

     negative rho (up, down):  5.361E-05 0.000E+00

     total cpu time spent up to now is     4147.7 secs

     total energy              =    -317.73808699 Ry
     estimated scf accuracy    <       0.00000021 Ry

     iteration #  7     ecut=    60.00 Ry     beta= 0.70
     Davidson diagonalization with overlap
     ethr =  6.38E-10,  avg # of iterations =  1.0

     negative rho (up, down):  5.361E-05 0.000E+00

     total cpu time spent up to now is     4288.3 secs

     total energy              =    -317.73808699 Ry
     estimated scf accuracy    <       0.00000019 Ry

     iteration #  8     ecut=    60.00 Ry     beta= 0.70
     Davidson diagonalization with overlap
     ethr =  6.38E-10,  avg # of iterations =  1.0

     negative rho (up, down):  5.359E-05 0.000E+00

     total cpu time spent up to now is     4427.2 secs

     total energy              =    -317.73808696 Ry
     estimated scf accuracy    <       0.00000017 Ry

     iteration #  9     ecut=    60.00 Ry     beta= 0.70
     Davidson diagonalization with overlap
     ethr =  6.15E-10,  avg # of iterations =  1.0

     negative rho (up, down):  5.368E-05 0.000E+00

     total cpu time spent up to now is     4568.9 secs

     total energy              =    -317.73808693 Ry
     estimated scf accuracy    <       0.00000011 Ry

     iteration # 10     ecut=    60.00 Ry     beta= 0.70
     Davidson diagonalization with overlap
     ethr =  4.02E-10,  avg # of iterations =  1.9

     negative rho (up, down):  5.364E-05 0.000E+00

     total cpu time spent up to now is     4740.6 secs

     End of self-consistent calculation

          k = 0.0000 0.0000 0.0000 ( 20001 PWs)   bands (ev):

   -24.1510 -24.1398 -24.1398 -24.0324 -24.0324 -23.8744 -23.8744 -23.7990
   -23.7990 -23.7398 -12.3393  -4.3927  -3.8338  -3.4571  -3.4571   0.5484
     0.5484   1.0145

          k = 0.0000 0.0481 0.0000 ( 20007 PWs)   bands (ev):

   -24.1522 -24.1444 -24.1427 -24.0328 -24.0317 -23.8701 -23.8693 -23.7998
   -23.7986 -23.7396 -12.3245  -4.3773  -4.2620  -3.4910  -3.0475   0.5283
     0.6122   1.0367

          k = 0.0000 0.0962 0.0000 ( 19993 PWs)   bands (ev):

   -24.1609 -24.1571 -24.1455 -24.0339 -24.0297 -23.8583 -23.8553 -23.8021
   -23.7975 -23.7391 -12.2801  -4.8378  -4.3313  -3.5856  -2.5382   0.4991
     0.7967   1.0969

          k = 0.0000 0.1443 0.0000 ( 20039 PWs)   bands (ev):

   -24.1778 -24.1751 -24.1448 -24.0357 -24.0263 -23.8421 -23.8351 -23.8060
   -23.7957 -23.7377 -12.2063  -5.4171  -4.2550  -3.7241  -2.1059   0.5314
     1.0846   1.1877

          k = 0.0000 0.1924 0.0000 ( 20061 PWs)   bands (ev):

   -24.1983 -24.1958 -24.1429 -24.0380 -24.0218 -23.8247 -23.8116 -23.8111
   -23.7934 -23.7348 -12.1035  -5.9861  -4.1491  -3.8868  -1.8089   0.6999
     1.3090   1.3108

          k = 0.0000 0.2405 0.0000 ( 20045 PWs)   bands (ev):

   -24.2197 -24.2171 -24.1404 -24.0406 -24.0163 -23.8174 -23.8094 -23.7908
   -23.7870 -23.7290 -11.9723  -6.5381  -4.0572  -4.0149  -1.6677   0.9196
     1.0331   1.4683

          k = 0.0000 0.2886 0.0000 ( 20055 PWs)   bands (ev):

   -24.2405 -24.2376 -24.1377 -24.0433 -24.0099 -23.8245 -23.7985 -23.7881
   -23.7631 -23.7197 -11.8140  -7.0676  -4.2225  -3.8540  -1.6446   0.5133
     1.4538   1.7140

          k = 0.0000 0.3367 0.0000 ( 20085 PWs)   bands (ev):

   -24.2596 -24.2561 -24.1349 -24.0460 -24.0030 -23.8322 -23.7922 -23.7855
   -23.7410 -23.7075 -11.6308  -7.5696  -4.3735  -3.6693  -1.6839   0.1068
     1.7586   2.1968

          k = 0.0000 0.3849 0.0000 ( 20131 PWs)   bands (ev):

   -24.2761 -24.2721 -24.1323 -24.0484 -23.9960 -23.8400 -23.7892 -23.7830
   -23.7217 -23.6946 -11.4266  -8.0376  -4.5039  -3.4654  -1.7458  -0.2871
     2.0096   2.8080

          k = 0.0000 0.4330 0.0000 ( 20143 PWs)   bands (ev):

   -24.2894 -24.2850 -24.1300 -24.0505 -23.9894 -23.8472 -23.7881 -23.7810
   -23.7060 -23.6828 -11.2093  -8.4618  -4.6091  -3.2508  -1.8079  -0.6542
     2.2750   3.1510

          k = 0.0000 0.4811 0.0000 ( 20129 PWs)   bands (ev):

   -24.2993 -24.2945 -24.1282 -24.0521 -23.9838 -23.8533 -23.7879 -23.7794
   -23.6944 -23.6736 -10.9957  -8.8243  -4.6862  -3.0424  -1.8581  -0.9739
     2.5624   3.3490

          k = 0.0000 0.5292 0.0000 ( 20120 PWs)   bands (ev):

   -24.3053 -24.3002 -24.1271 -24.0531 -23.9800 -23.8574 -23.7880 -23.7785
   -23.6873 -23.6678 -10.8219  -9.0878  -4.7332  -2.8750  -1.8903  -1.2089
     2.8650   3.4796

          k =-0.0000-0.5773 0.0000 ( 20096 PWs)   bands (ev):

   -24.3073 -24.3022 -24.1267 -24.0534 -23.9787 -23.8588 -23.7880 -23.7781
   -23.6848 -23.6658 -10.7502  -9.1894  -4.7490  -2.8068  -1.9013  -1.2998
     3.0856   3.3765

          k = 0.0417 0.0722 0.0000 ( 20005 PWs)   bands (ev):

   -24.1590 -24.1494 -24.1473 -24.0336 -24.0303 -23.8621 -23.8597 -23.8014
   -23.7978 -23.7393 -12.2949  -4.6813  -4.3466  -3.5591  -2.6659   0.4950
     0.7447   1.0774

          k = 0.0417 0.1203 0.0000 ( 20013 PWs)   bands (ev):

   -24.1755 -24.1622 -24.1470 -24.0351 -24.0276 -23.8482 -23.8428 -23.8045
   -23.7964 -23.7383 -12.2358  -5.2097  -4.2854  -3.6845  -2.2279   0.4718
     1.0016   1.1513

          k = 0.0417 0.1684 0.0000 ( 20052 PWs)   bands (ev):

   -24.1966 -24.1793 -24.1453 -24.0371 -24.0236 -23.8314 -23.8214 -23.8090
   -23.7943 -23.7361 -12.1474  -5.7584  -4.1943  -3.8453  -1.8623   0.5345
     1.2534   1.3601

          k = 0.0417 0.2165 0.0000 ( 20055 PWs)   bands (ev):

   -24.2192 -24.1983 -24.1430 -24.0396 -24.0185 -23.8149 -23.8148 -23.7983
   -23.7918 -23.7313 -12.0304  -6.3035  -4.0742  -4.0214  -1.6333   0.7485
     1.0892   1.3877

          k = 0.0417 0.2646 0.0000 ( 20075 PWs)   bands (ev):

   -24.2417 -24.2175 -24.1403 -24.0424 -24.0124 -23.8216 -23.8018 -23.7891
   -23.7754 -23.7228 -11.8855  -6.8341  -4.1974  -3.9265  -1.5461   0.6945
     1.1199   1.5590

          k = 0.0417 0.3127 0.0000 ( 20077 PWs)   bands (ev):

   -24.2626 -24.2356 -24.1375 -24.0451 -24.0057 -23.8292 -23.7935 -23.7864
   -23.7541 -23.7105 -11.7145  -7.3430  -4.3621  -3.7534  -1.5527   0.2916
     1.5632   1.8105

          k = 0.0417 0.3608 0.0000 ( 20090 PWs)   bands (ev):

   -24.2812 -24.2517 -24.1348 -24.0477 -23.9986 -23.8371 -23.7893 -23.7838
   -23.7351 -23.6962 -11.5201  -7.8236  -4.5080  -3.5584  -1.6028  -0.1062
     1.8840   2.2860

          k = 0.0417 0.4089 0.0000 ( 20107 PWs)   bands (ev):

   -24.2968 -24.2653 -24.1323 -24.0500 -23.9915 -23.8448 -23.7877 -23.7815
   -23.7191 -23.6822 -11.3079  -8.2676  -4.6296  -3.3477  -1.6644  -0.4857
     2.1484   2.8788

          k = 0.0417 0.4570 0.0000 ( 20118 PWs)   bands (ev):

   -24.3088 -24.2758 -24.1302 -24.0519 -23.9852 -23.8516 -23.7873 -23.7797
   -23.7066 -23.6705 -11.0892  -8.6617  -4.7235  -3.1330  -1.7203  -0.8306
     2.4265   3.2219

          k = 0.0417 0.5051 0.0000 ( 20132 PWs)   bands (ev):

   -24.3170 -24.2830 -24.1287 -24.0532 -23.9803 -23.8569 -23.7873 -23.7784
   -23.6981 -23.6621 -10.8886  -8.9800  -4.7873  -2.9386  -1.7613  -1.1133
     2.7238   3.3417

          k = 0.0417 0.5532 0.0000 ( 20126 PWs)   bands (ev):

   -24.3212 -24.2867 -24.1280 -24.0538 -23.9776 -23.8598 -23.7875 -23.7777
   -23.6938 -23.6578 -10.7565  -9.1712  -4.8196  -2.8122  -1.7828  -1.2843
     3.0176   3.3847

          k = 0.0833 0.1443 0.0000 ( 20045 PWs)   bands (ev):

   -24.1964 -24.1713 -24.1478 -24.0369 -24.0242 -23.8337 -23.8249 -23.8084
   -23.7945 -23.7364 -12.1621  -5.6730  -4.2094  -3.8452  -1.8627   0.4443
     1.2358   1.3520

          k = 0.0833 0.1924 0.0000 ( 20059 PWs)   bands (ev):

   -24.2196 -24.1851 -24.1468 -24.0393 -24.0195 -23.8176 -23.8137 -23.8051
   -23.7922 -23.7320 -12.0595  -6.1689  -4.1040  -4.0369  -1.5439   0.4980
     1.1821   1.3496

          k = 0.0833 0.2405 0.0000 ( 20083 PWs)   bands (ev):

   -24.2432 -24.2008 -24.1447 -24.0420 -24.0137 -23.8201 -23.8029 -23.7895
   -23.7859 -23.7236 -11.9286  -6.6711  -4.2355  -3.9703  -1.3432   0.7028
     0.8163   1.4937

          k = 0.0833 0.2886 0.0000 ( 20094 PWs)   bands (ev):

   -24.2658 -24.2167 -24.1422 -24.0449 -24.0070 -23.8276 -23.7927 -23.7867
   -23.7678 -23.7103 -11.7706  -7.1655  -4.4253  -3.8099  -1.2717   0.4321
     1.0702   1.6701

          k = 0.0833 0.3367 0.0000 ( 20094 PWs)   bands (ev):

   -24.2863 -24.2316 -24.1394 -24.0477 -23.9997 -23.8356 -23.7875 -23.7839
   -23.7510 -23.6942 -11.5875  -7.6420  -4.5964  -3.6256  -1.2837   0.0437
     1.5466   1.8884

          k = 0.0833 0.3849 0.0000 ( 20088 PWs)   bands (ev):

   -24.3040 -24.2446 -24.1368 -24.0502 -23.9922 -23.8437 -23.7855 -23.7814
   -23.7359 -23.6779 -11.3832  -8.0919  -4.7424  -3.4218  -1.3312  -0.3363
     2.0029   2.2271

          k = 0.0833 0.4330 0.0000 ( 20111 PWs)   bands (ev):

   -24.3183 -24.2553 -24.1346 -24.0524 -23.9851 -23.8515 -23.7852 -23.7793
   -23.7235 -23.6636 -11.1653  -8.5040  -4.8592  -3.2067  -1.3856  -0.6937
     2.3117   2.7728

          k = 0.0833 0.4811 0.0000 ( 20119 PWs)   bands (ev):

   -24.3288 -24.2632 -24.1328 -24.0540 -23.9790 -23.8580 -23.7854 -23.7777
   -23.7142 -23.6527 -10.9500  -8.8596  -4.9443  -2.9967  -1.4316  -1.0080
     2.6050   3.1143

          k = 0.0833 0.5292 0.0000 ( 20109 PWs)   bands (ev):

   -24.3352 -24.2680 -24.1316 -24.0551 -23.9748 -23.8624 -23.7857 -23.7767
   -23.7084 -23.6459 -10.7731  -9.1212  -4.9959  -2.8265  -1.4616  -1.2418
     2.9069   3.1167

          k = 0.0833 0.5773 0.0000 ( 20128 PWs)   bands (ev):

   -24.3374 -24.2696 -24.1312 -24.0554 -23.9733 -23.8641 -23.7858 -23.7763
   -23.7065 -23.6436 -10.6996  -9.2232  -5.0131  -2.7565  -1.4720  -1.3332
     3.1130   3.1218

          k = 0.1250 0.2165 0.0000 ( 20077 PWs)   bands (ev):

   -24.2437 -24.1939 -24.1473 -24.0419 -24.0140 -23.8197 -23.8027 -23.7903
   -23.7896 -23.7237 -11.9430  -6.6115  -4.2598  -3.9849  -1.2280   0.5129
     0.8597   1.4750

          k = 0.1250 0.2646 0.0000 ( 20086 PWs)   bands (ev):

   -24.2674 -24.2047 -24.1465 -24.0449 -24.0075 -23.8269 -23.7899 -23.7867
   -23.7781 -23.7099 -11.7987  -7.0652  -4.4837  -3.8383  -0.9993   0.5093
     0.6656   1.6303

          k = 0.1250 0.3127 0.0000 ( 20092 PWs)   bands (ev):

   -24.2894 -24.2162 -24.1449 -24.0479 -24.0001 -23.8350 -23.7838 -23.7833
   -23.7649 -23.6924 -11.6282  -7.5164  -4.6909  -3.6662  -0.8997   0.1450
     0.9962   1.8161

          k = 0.1250 0.3608 0.0000 ( 20080 PWs)   bands (ev):

   -24.3090 -24.2271 -24.1428 -24.0507 -23.9921 -23.8436 -23.7814 -23.7811
   -23.7514 -23.6743 -11.4340  -7.9540  -4.8714  -3.4719  -0.8935  -0.2213
     1.4651   2.0332

          k = 0.1250 0.4089 0.0000 ( 20114 PWs)   bands (ev):

   -24.3253 -24.2366 -24.1407 -24.0532 -23.9842 -23.8521 -23.7814 -23.7786
   -23.7394 -23.6579 -11.2213  -8.3675  -5.0198  -3.2610  -0.9275  -0.5771
     2.0066   2.2873

          k = 0.1250 0.4570 0.0000 ( 20113 PWs)   bands (ev):

   -24.3380 -24.2442 -24.1389 -24.0552 -23.9768 -23.8599 -23.7820 -23.7767
   -23.7298 -23.6446 -11.0004  -8.7421  -5.1330  -3.0444  -0.9694  -0.9065
     2.4896   2.6602

          k = 0.1250 0.5051 0.0000 ( 20113 PWs)   bands (ev):

   -24.3466 -24.2494 -24.1375 -24.0566 -23.9710 -23.8661 -23.7827 -23.7753
   -23.7232 -23.6354 -10.7948  -9.0517  -5.2093  -2.8453  -1.1828  -1.0033
     2.8089   2.8464

          k = 0.1250 0.5532 0.0000 ( 20114 PWs)   bands (ev):

   -24.3510 -24.2521 -24.1368 -24.0574 -23.9676 -23.8696 -23.7831 -23.7746
   -23.7198 -23.6306 -10.6563  -9.2426  -5.2476  -2.7128  -1.3544  -1.0217
     2.8197   3.0907

          k = 0.1666 0.2886 0.0000 ( 20089 PWs)   bands (ev):

   -24.2905 -24.2100 -24.1476 -24.0480 -24.0001 -23.8348 -23.7837 -23.7770
   -23.7746 -23.6918 -11.6418  -7.4708  -4.7299  -3.6798  -0.6871   0.1811
     0.7253   1.7975

          k = 0.1666 0.3367 0.0000 ( 20084 PWs)   bands (ev):

   -24.3115 -24.2161 -24.1477 -24.0511 -23.9919 -23.8436 -23.7808 -23.7748
   -23.7639 -23.6724 -11.4596  -7.8766  -4.9534  -3.4971  -0.4967  -0.1578
     0.9664   1.9944

          k = 0.1666 0.3849 0.0000 ( 20093 PWs)   bands (ev):

   -24.3296 -24.2223 -24.1470 -24.0539 -23.9832 -23.8529 -23.7780 -23.7758
   -23.7528 -23.6543 -11.2555  -8.2725  -5.1432  -3.2942  -0.4972  -0.4361
     1.3902   2.2201

          k = 0.1666 0.4330 0.0000 ( 20113 PWs)   bands (ev):

   -24.3443 -24.2279 -24.1460 -24.0563 -23.9747 -23.8619 -23.7772 -23.7757
   -23.7436 -23.6390 -11.0361  -8.6465  -5.2937  -3.0781  -0.8249  -0.4413
     1.9238   2.4722

          k = 0.1666 0.4811 0.0000 ( 20107 PWs)   bands (ev):

   -24.3550 -24.2322 -24.1450 -24.0581 -23.9670 -23.8699 -23.7785 -23.7740
   -23.7367 -23.6274 -10.8154  -8.9804  -5.4023  -2.8632  -1.1225  -0.4647
     2.5018   2.6262

          k = 0.1666 0.5292 0.0000 ( 20106 PWs)   bands (ev):

   -24.3616 -24.2349 -24.1443 -24.0592 -23.9614 -23.8757 -23.7794 -23.7729
   -23.7325 -23.6202 -10.6283  -9.2366  -5.4679  -2.6831  -1.3534  -0.4846
     2.5684   3.0025

          k = 0.1666 0.5773 0.0000 ( 20103 PWs)   bands (ev):

   -24.3638 -24.2359 -24.1440 -24.0596 -23.9594 -23.8778 -23.7797 -23.7725
   -23.7311 -23.6178 -10.5473  -9.3408  -5.4898  -2.6060  -1.4476  -0.4921
     2.5483   3.1459

          k = 0.2083 0.3608 0.0000 ( 20087 PWs)   bands (ev):

   -24.3311 -24.2167 -24.1499 -24.0541 -23.9828 -23.8532 -23.7778 -23.7711
   -23.7603 -23.6530 -11.2671  -8.2381  -5.1890  -3.3054  -0.4685  -0.1546
     1.0634   2.2027

          k = 0.2083 0.4089 0.0000 ( 20099 PWs)   bands (ev):

   -24.3475 -24.2176 -24.1515 -24.0569 -23.9733 -23.8631 -23.7752 -23.7718
   -23.7537 -23.6360 -11.0545  -8.5921  -5.3850  -3.0955  -0.7790   0.0324
     1.3715   2.4385

          k = 0.2083 0.4570 0.0000 ( 20115 PWs)   bands (ev):

   -24.3602 -24.2188 -24.1523 -24.0591 -23.9640 -23.8728 -23.7733 -23.7731
   -23.7478 -23.6224 -10.8299  -8.9266  -5.5350  -2.8758  -1.0774   0.0891
     1.8522   2.4837

          k = 0.2083 0.5051 0.0000 ( 20122 PWs)   bands (ev):

   -24.3689 -24.2198 -24.1526 -24.0607 -23.9560 -23.8811 -23.7746 -23.7716
   -23.7436 -23.6130 -10.6130  -9.2187  -5.6360  -2.6660  -1.3414   0.0950
     2.3866   2.3946

          k = 0.2083 0.5532 0.0000 ( 20133 PWs)   bands (ev):

   -24.3733 -24.2204 -24.1528 -24.0615 -23.9510 -23.8862 -23.7754 -23.7708
   -23.7414 -23.6082 -10.4568  -9.4131  -5.6867  -2.5166  -1.5184   0.0911
     2.3369   2.8323

          k = 0.2500 0.4330 0.0000 ( 20133 PWs)   bands (ev):

   -24.3619 -24.2133 -24.1557 -24.0595 -23.9629 -23.8739 -23.7727 -23.7700
   -23.7532 -23.6208 -10.8351  -8.9066  -5.5822  -2.8804  -1.0606   0.4180
     1.4901   2.4334

          k = 0.2500 0.4811 0.0000 ( 20115 PWs)   bands (ev):

   -24.3725 -24.2097 -24.1592 -24.0615 -23.9526 -23.8844 -23.7709 -23.7700
   -23.7515 -23.6093 -10.6067  -9.2045  -5.7267  -2.6584  -1.3312   0.6186
     1.8261   2.2913

          k = 0.2500 0.5292 0.0000 ( 20109 PWs)   bands (ev):

   -24.3790 -24.2072 -24.1617 -24.0628 -23.9440 -23.8931 -23.7705 -23.7697
   -23.7501 -23.6022 -10.3963  -9.4575  -5.8146  -2.4561  -1.5633   0.6820
     2.2032   2.2728

          k = 0.2500 0.5773 0.0000 ( 20109 PWs)   bands (ev):

   -24.3812 -24.2064 -24.1625 -24.0632 -23.9403 -23.8969 -23.7707 -23.7693
   -23.7495 -23.5998 -10.2926  -9.5756  -5.8440  -2.3573  -1.6721   0.6947
     2.1734   2.5234

          k = 0.2916 0.5051 0.0000 ( 20105 PWs)   bands (ev):

   -24.3810 -24.2012 -24.1663 -24.0632 -23.9411 -23.8960 -23.7693 -23.7675
   -23.7544 -23.6002 -10.3750  -9.4725  -5.8589  -2.4345  -1.5789   1.0530
     1.9007   2.1574

          k = 0.2916 0.5532 0.0000 ( 20115 PWs)   bands (ev):

   -24.3853 -24.1949 -24.1718 -24.0641 -23.9315 -23.9057 -23.7685 -23.7661
   -23.7560 -23.5955 -10.1690  -9.6966  -5.9261  -2.2373  -1.7878   1.2591
     2.0891   2.0908

          k = 0.3333 0.5773 0.0000 ( 20085 PWs)   bands (ev):

   -24.3873 -24.1830 -24.1830 -24.0645 -23.9186 -23.9186 -23.7681 -23.7613
   -23.7613 -23.5933  -9.9346  -9.9346  -5.9640  -2.0134  -2.0134   1.7579
     1.7579   2.0504

     the Fermi energy is    -2.3746 ev

!    total energy              =    -317.73808691 Ry
     estimated scf accuracy    <       0.00000004 Ry
     smearing contrib. (-TS)   =       0.00028828 Ry
     internal energy E=F+TS    =    -317.73837519 Ry

     The total energy is F=E-TS. E is the sum of the following terms:
     one-electron contribution =    -884.63076496 Ry
     hartree contribution      =     448.99885260 Ry
     xc contribution           =     -85.00418552 Ry
     ewald contribution        =     202.89772269 Ry

     convergence has been achieved in  10 iterations

     negative rho (up, down):  5.364E-05 0.000E+00

     Forces acting on atoms (cartesian axes, Ry/au):

     atom    1 type  1   force =    -0.00000000   -0.00000000    0.00000000
     atom    2 type  1   force =     0.00000000   -0.00000000    0.00000000
     The non-local contrib.  to forces
     atom    1 type  1   force =    -0.00000000   -0.00000000   -0.00000000
     atom    2 type  1   force =     0.00000000    0.00000000    0.00000000
     The ionic contribution  to forces
     atom    1 type  1   force =    -0.00000003    0.00000002    0.00000000
     atom    2 type  1   force =     0.00000003   -0.00000002    0.00000000
     The local contribution  to forces
     atom    1 type  1   force =     0.00000000    0.00000041   -0.00000000
     atom    2 type  1   force =     0.00000036    0.00000021   -0.00000000
     The core correction contribution to forces
     atom    1 type  1   force =     0.00000000    0.00000004   -0.00000000
     atom    2 type  1   force =     0.00000004    0.00000002   -0.00000000
     The Hubbard contrib.    to forces
     atom    1 type  1   force =     0.00000000    0.00000000    0.00000000
     atom    2 type  1   force =     0.00000000    0.00000000    0.00000000
     The SCF correction term to forces
     atom    1 type  1   force =     0.00000000   -0.00000000   -0.00000000
     atom    2 type  1   force =    -0.00000000   -0.00000000   -0.00000000

     Total force =     0.000000     Total SCF correction =     0.000000


     Computing stress (Cartesian axis) and pressure


     negative rho (up, down):  5.364E-05 0.000E+00
          total   stress  (Ry/bohr**3)                   (kbar)     P=        1.68
   0.00001576  -0.00000000   0.00000000            2.32       -0.00        0.00
  -0.00000000   0.00001576   0.00000000           -0.00        2.32        0.00
  -0.00000000  -0.00000000   0.00000271           -0.00       -0.00        0.40

     Energy error            =      7.2E-06 Ry
     Gradient error          =      6.4E-24 Ry/Bohr
     Cell gradient error     =      2.3E+00 kbar

     number of scf cycles    =   2
     number of bfgs steps    =   1

     enthalpy           old  =    -317.7380796636 Ry
     enthalpy           new  =    -317.7380869061 Ry

     CASE: enthalpy          _new < enthalpy          _old


     WARNING: bfgs curvature condition failed, Theta= 0.248
     new trust radius        =       0.0013571309 bohr
     new conv_thr            =       0.0000000010 Ry

     new unit-cell volume =   2561.36395 a.u.^3 (   379.55498 Ang^3 )
     density =      1.03870 g/cm^3

CELL_PARAMETERS (alat=  8.84391826)
   1.000256032  -0.000000000   0.000000000
  -0.500128016   0.866247134   0.000000000
   0.000000000   0.000000000   4.273504274

ATOMIC_POSITIONS (crystal)
Sn            0.3333333330        0.6666666660        0.5000000000
Sn            0.6666666660        0.3333333330        0.5000000000



     Writing config-only to output data dir ../tmp/stanene.save/
     NEW-OLD atomic charge density approx. for the potential

     negative rho (up, down):  6.124E-05 0.000E+00
     extrapolated charge   28.00697, renormalised to   28.00000

     total cpu time spent up to now is     4870.8 secs

     Self-consistent Calculation

     iteration #  1     ecut=    60.00 Ry     beta= 0.70
     Davidson diagonalization with overlap
     ethr =  1.00E-06,  avg # of iterations =  2.2

     Threshold (ethr) on eigenvalues was too large:
     Diagonalizing with lowered threshold

     Davidson diagonalization with overlap
     ethr =  6.55E-08,  avg # of iterations =  1.0

     negative rho (up, down):  5.538E-05 0.000E+00

     total cpu time spent up to now is     5306.7 secs

     total energy              =    -317.73806805 Ry
     estimated scf accuracy    <       0.00001731 Ry

     iteration #  2     ecut=    60.00 Ry     beta= 0.70
     Davidson diagonalization with overlap
     ethr =  6.18E-08,  avg # of iterations =  3.1

     negative rho (up, down):  5.397E-05 0.000E+00

     total cpu time spent up to now is     5606.9 secs

     total energy              =    -317.73809437 Ry
     estimated scf accuracy    <       0.00002511 Ry

     iteration #  3     ecut=    60.00 Ry     beta= 0.70
     Davidson diagonalization with overlap
     ethr =  6.18E-08,  avg # of iterations =  2.0

     negative rho (up, down):  5.355E-05 0.000E+00

     total cpu time spent up to now is     5805.5 secs

     total energy              =    -317.73809504 Ry
     estimated scf accuracy    <       0.00000454 Ry

     iteration #  4     ecut=    60.00 Ry     beta= 0.70
     Davidson diagonalization with overlap
     ethr =  1.62E-08,  avg # of iterations =  1.0

     negative rho (up, down):  5.345E-05 0.000E+00

     total cpu time spent up to now is     5952.0 secs

     total energy              =    -317.73809480 Ry
     estimated scf accuracy    <       0.00000177 Ry

     iteration #  5     ecut=    60.00 Ry     beta= 0.70
     Davidson diagonalization with overlap
     ethr =  6.31E-09,  avg # of iterations =  1.9

     negative rho (up, down):  5.341E-05 0.000E+00

     total cpu time spent up to now is     6131.5 secs

     total energy              =    -317.73809485 Ry
     estimated scf accuracy    <       0.00000087 Ry

     iteration #  6     ecut=    60.00 Ry     beta= 0.70
     Davidson diagonalization with overlap
     ethr =  3.09E-09,  avg # of iterations =  1.0

     negative rho (up, down):  5.340E-05 0.000E+00

     total cpu time spent up to now is     6275.8 secs

     total energy              =    -317.73809488 Ry
     estimated scf accuracy    <       0.00000063 Ry

     iteration #  7     ecut=    60.00 Ry     beta= 0.70
     Davidson diagonalization with overlap
     ethr =  2.25E-09,  avg # of iterations =  1.0

     negative rho (up, down):  5.337E-05 0.000E+00

     total cpu time spent up to now is     6420.8 secs

     total energy              =    -317.73809503 Ry
     estimated scf accuracy    <       0.00000066 Ry

     iteration #  8     ecut=    60.00 Ry     beta= 0.70
     Davidson diagonalization with overlap
     ethr =  2.25E-09,  avg # of iterations =  1.0

     negative rho (up, down):  5.343E-05 0.000E+00

     total cpu time spent up to now is     6565.4 secs

     total energy              =    -317.73809458 Ry
     estimated scf accuracy    <       0.00000098 Ry

     iteration #  9     ecut=    60.00 Ry     beta= 0.70
     Davidson diagonalization with overlap
     ethr =  2.25E-09,  avg # of iterations =  2.0

     negative rho (up, down):  5.347E-05 0.000E+00

     total cpu time spent up to now is     6756.9 secs

     total energy              =    -317.73809457 Ry
     estimated scf accuracy    <       0.00000014 Ry

     iteration # 10     ecut=    60.00 Ry     beta= 0.70
     Davidson diagonalization with overlap
     ethr =  5.10E-10,  avg # of iterations =  2.0

     negative rho (up, down):  5.346E-05 0.000E+00

     total cpu time spent up to now is     6958.4 secs

     total energy              =    -317.73809460 Ry
     estimated scf accuracy    <          3.0E-09 Ry

     iteration # 11     ecut=    60.00 Ry     beta= 0.70
     Davidson diagonalization with overlap
     ethr =  1.08E-11,  avg # of iterations =  5.9

     negative rho (up, down):  5.346E-05 0.000E+00

     total cpu time spent up to now is     7363.6 secs

     total energy              =    -317.73809461 Ry
     estimated scf accuracy    <          1.4E-09 Ry

     iteration # 12     ecut=    60.00 Ry     beta= 0.70
     Davidson diagonalization with overlap
     ethr =  4.98E-12,  avg # of iterations =  1.0

     negative rho (up, down):  5.346E-05 0.000E+00

     total cpu time spent up to now is     7505.6 secs

     total energy              =    -317.73809461 Ry
     estimated scf accuracy    <          1.3E-09 Ry

     iteration # 13     ecut=    60.00 Ry     beta= 0.70
     Davidson diagonalization with overlap
     ethr =  4.70E-12,  avg # of iterations =  1.0

     negative rho (up, down):  5.345E-05 0.000E+00

     total cpu time spent up to now is     7648.1 secs

     End of self-consistent calculation

          k = 0.0000 0.0000 0.0000 ( 20001 PWs)   bands (ev):

   -24.1497 -24.1384 -24.1384 -24.0312 -24.0312 -23.8733 -23.8733 -23.7980
   -23.7980 -23.7389 -12.3376  -4.3919  -3.8363  -3.4572  -3.4572   0.5476
     0.5476   1.0142

          k = 0.0000 0.0481 0.0000 ( 20007 PWs)   bands (ev):

   -24.1509 -24.1430 -24.1413 -24.0316 -24.0305 -23.8690 -23.8682 -23.7988
   -23.7976 -23.7387 -12.3227  -4.3765  -4.2635  -3.4910  -3.0486   0.5275
     0.6114   1.0364

          k = 0.0000 0.0962 0.0000 ( 19993 PWs)   bands (ev):

   -24.1595 -24.1557 -24.1441 -24.0327 -24.0285 -23.8572 -23.8542 -23.8012
   -23.7965 -23.7382 -12.2783  -4.8389  -4.3305  -3.5856  -2.5397   0.4983
     0.7958   1.0966

          k = 0.0000 0.1443 0.0000 ( 20039 PWs)   bands (ev):

   -24.1765 -24.1737 -24.1434 -24.0345 -24.0251 -23.8410 -23.8340 -23.8050
   -23.7948 -23.7369 -12.2046  -5.4179  -4.2542  -3.7240  -2.1075   0.5306
     1.0836   1.1873

          k = 0.0000 0.1924 0.0000 ( 20061 PWs)   bands (ev):

   -24.1969 -24.1944 -24.1415 -24.0368 -24.0206 -23.8237 -23.8105 -23.8102
   -23.7925 -23.7339 -12.1018  -5.9866  -4.1484  -3.8867  -1.8104   0.6988
     1.3086   1.3094

          k = 0.0000 0.2405 0.0000 ( 20045 PWs)   bands (ev):

   -24.2183 -24.2157 -24.1391 -24.0394 -24.0151 -23.8164 -23.8084 -23.7899
   -23.7860 -23.7281 -11.9707  -6.5383  -4.0570  -4.0142  -1.6690   0.9183
     1.0317   1.4678

          k = 0.0000 0.2886 0.0000 ( 20055 PWs)   bands (ev):

   -24.2391 -24.2361 -24.1364 -24.0421 -24.0087 -23.8236 -23.7975 -23.7872
   -23.7621 -23.7188 -11.8125  -7.0677  -4.2222  -3.8534  -1.6458   0.5123
     1.4526   1.7130

          k = 0.0000 0.3367 0.0000 ( 20085 PWs)   bands (ev):

   -24.2581 -24.2547 -24.1336 -24.0448 -24.0018 -23.8312 -23.7912 -23.7845
   -23.7400 -23.7066 -11.6293  -7.5695  -4.3731  -3.6687  -1.6850   0.1059
     1.7579   2.1948

          k = 0.0000 0.3848 0.0000 ( 20131 PWs)   bands (ev):

   -24.2746 -24.2706 -24.1310 -24.0472 -23.9948 -23.8390 -23.7882 -23.7821
   -23.7207 -23.6937 -11.4252  -8.0373  -4.5034  -3.4649  -1.7467  -0.2877
     2.0090   2.8057

          k = 0.0000 0.4329 0.0000 ( 20143 PWs)   bands (ev):

   -24.2879 -24.2835 -24.1287 -24.0493 -23.9882 -23.8462 -23.7871 -23.7801
   -23.7050 -23.6820 -11.2080  -8.4613  -4.6086  -3.2504  -1.8087  -0.6547
     2.2744   3.1501

          k = 0.0000 0.4810 0.0000 ( 20129 PWs)   bands (ev):

   -24.2977 -24.2929 -24.1269 -24.0509 -23.9827 -23.8523 -23.7869 -23.7785
   -23.6934 -23.6728 -10.9945  -8.8236  -4.6856  -3.0421  -1.8589  -0.9743
     2.5617   3.3480

          k = 0.0000 0.5291 0.0000 ( 20120 PWs)   bands (ev):

   -24.3037 -24.2987 -24.1258 -24.0518 -23.9789 -23.8564 -23.7870 -23.7775
   -23.6863 -23.6669 -10.8207  -9.0870  -4.7326  -2.8748  -1.8910  -1.2092
     2.8642   3.4781

          k =-0.0000-0.5772 0.0000 ( 20096 PWs)   bands (ev):

   -24.3058 -24.3006 -24.1254 -24.0522 -23.9775 -23.8578 -23.7871 -23.7772
   -23.6839 -23.6650 -10.7491  -9.1886  -4.7484  -2.8066  -1.9021  -1.3001
     3.0847   3.3755

          k = 0.0417 0.0722 0.0000 ( 20005 PWs)   bands (ev):

   -24.1576 -24.1481 -24.1460 -24.0324 -24.0291 -23.8610 -23.8586 -23.8004
   -23.7969 -23.7384 -12.2931  -4.6824  -4.3458  -3.5591  -2.6673   0.4943
     0.7438   1.0771

          k = 0.0417 0.1203 0.0000 ( 20013 PWs)   bands (ev):

   -24.1741 -24.1608 -24.1457 -24.0339 -24.0264 -23.8471 -23.8417 -23.8035
   -23.7954 -23.7374 -12.2340  -5.2106  -4.2846  -3.6844  -2.2295   0.4711
     1.0006   1.1510

          k = 0.0417 0.1684 0.0000 ( 20052 PWs)   bands (ev):

   -24.1952 -24.1779 -24.1440 -24.0359 -24.0224 -23.8303 -23.8203 -23.8081
   -23.7934 -23.7352 -12.1457  -5.7591  -4.1936  -3.8451  -1.8639   0.5336
     1.2530   1.3589

          k = 0.0417 0.2165 0.0000 ( 20055 PWs)   bands (ev):

   -24.2178 -24.1969 -24.1417 -24.0384 -24.0173 -23.8139 -23.8138 -23.7973
   -23.7909 -23.7304 -12.0287  -6.3039  -4.0735  -4.0212  -1.6349   0.7474
     1.0879   1.3873

          k = 0.0417 0.2646 0.0000 ( 20075 PWs)   bands (ev):

   -24.2402 -24.2160 -24.1390 -24.0411 -24.0113 -23.8207 -23.8008 -23.7882
   -23.7744 -23.7219 -11.8840  -6.8343  -4.1971  -3.9259  -1.5474   0.6934
     1.1185   1.5585

          k = 0.0417 0.3127 0.0000 ( 20077 PWs)   bands (ev):

   -24.2611 -24.2341 -24.1362 -24.0439 -24.0045 -23.8282 -23.7925 -23.7854
   -23.7531 -23.7096 -11.7130  -7.3430  -4.3617  -3.7528  -1.5538   0.2907
     1.5620   1.8095

          k = 0.0417 0.3608 0.0000 ( 20090 PWs)   bands (ev):

   -24.2797 -24.2503 -24.1335 -24.0465 -23.9974 -23.8361 -23.7883 -23.7829
   -23.7341 -23.6953 -11.5186  -7.8234  -4.5075  -3.5579  -1.6038  -0.1069
     1.8834   2.2842

          k = 0.0417 0.4089 0.0000 ( 20107 PWs)   bands (ev):

   -24.2953 -24.2638 -24.1310 -24.0488 -23.9904 -23.8438 -23.7867 -23.7806
   -23.7181 -23.6813 -11.3065  -8.2672  -4.6291  -3.3472  -1.6653  -0.4863
     2.1478   2.8765

          k = 0.0417 0.4570 0.0000 ( 20118 PWs)   bands (ev):

   -24.3073 -24.2743 -24.1289 -24.0507 -23.9841 -23.8506 -23.7863 -23.7787
   -23.7057 -23.6696 -11.0879  -8.6611  -4.7230  -3.1326  -1.7212  -0.8310
     2.4259   3.2209

          k = 0.0417 0.5051 0.0000 ( 20132 PWs)   bands (ev):

   -24.3155 -24.2815 -24.1274 -24.0520 -23.9792 -23.8559 -23.7864 -23.7775
   -23.6972 -23.6613 -10.8874  -8.9793  -4.7867  -2.9383  -1.7621  -1.1136
     2.7230   3.3407

          k = 0.0417 0.5532 0.0000 ( 20126 PWs)   bands (ev):

   -24.3197 -24.2851 -24.1267 -24.0526 -23.9765 -23.8588 -23.7865 -23.7768
   -23.6929 -23.6569 -10.7554  -9.1704  -4.8190  -2.8120  -1.7836  -1.2846
     3.0168   3.3837

          k = 0.0833 0.1443 0.0000 ( 20045 PWs)   bands (ev):

   -24.1950 -24.1699 -24.1465 -24.0357 -24.0230 -23.8327 -23.8239 -23.8074
   -23.7936 -23.7355 -12.1604  -5.6737  -4.2087  -3.8450  -1.8644   0.4436
     1.2354   1.3508

          k = 0.0833 0.1924 0.0000 ( 20059 PWs)   bands (ev):

   -24.2181 -24.1837 -24.1455 -24.0381 -24.0183 -23.8165 -23.8127 -23.8041
   -23.7913 -23.7311 -12.0578  -6.1694  -4.1033  -4.0366  -1.5456   0.4972
     1.1808   1.3493

          k = 0.0833 0.2405 0.0000 ( 20083 PWs)   bands (ev):

   -24.2417 -24.1994 -24.1434 -24.0408 -24.0125 -23.8192 -23.8019 -23.7886
   -23.7849 -23.7227 -11.9270  -6.6714  -4.2351  -3.9696  -1.3448   0.7018
     0.8151   1.4932

          k = 0.0833 0.2886 0.0000 ( 20094 PWs)   bands (ev):

   -24.2643 -24.2153 -24.1408 -24.0437 -24.0058 -23.8266 -23.7917 -23.7858
   -23.7669 -23.7094 -11.7690  -7.1655  -4.4249  -3.8093  -1.2731   0.4311
     1.0689   1.6697

          k = 0.0833 0.3367 0.0000 ( 20094 PWs)   bands (ev):

   -24.2848 -24.2301 -24.1381 -24.0465 -23.9985 -23.8346 -23.7866 -23.7830
   -23.7500 -23.6933 -11.5860  -7.6419  -4.5959  -3.6250  -1.2848   0.0428
     1.5451   1.8878

          k = 0.0833 0.3848 0.0000 ( 20088 PWs)   bands (ev):

   -24.3025 -24.2432 -24.1355 -24.0490 -23.9911 -23.8427 -23.7846 -23.7805
   -23.7350 -23.6770 -11.3818  -8.0916  -4.7418  -3.4213  -1.3323  -0.3369
     2.0019   2.2257

          k = 0.0833 0.4329 0.0000 ( 20111 PWs)   bands (ev):

   -24.3168 -24.2538 -24.1332 -24.0512 -23.9839 -23.8505 -23.7842 -23.7784
   -23.7225 -23.6627 -11.1640  -8.5035  -4.8586  -3.2063  -1.3866  -0.6942
     2.3110   2.7707

          k = 0.0833 0.4810 0.0000 ( 20119 PWs)   bands (ev):

   -24.3272 -24.2617 -24.1315 -24.0528 -23.9779 -23.8570 -23.7844 -23.7768
   -23.7132 -23.6518 -10.9487  -8.8590  -4.9436  -2.9964  -1.4325  -1.0084
     2.6043   3.1133

          k = 0.0833 0.5291 0.0000 ( 20109 PWs)   bands (ev):

   -24.3336 -24.2665 -24.1303 -24.0538 -23.9737 -23.8614 -23.7848 -23.7758
   -23.7075 -23.6450 -10.7720  -9.1205  -4.9951  -2.8263  -1.4625  -1.2421
     2.9061   3.1159

          k = 0.0833 0.5772 0.0000 ( 20128 PWs)   bands (ev):

   -24.3358 -24.2681 -24.1299 -24.0542 -23.9722 -23.8630 -23.7849 -23.7754
   -23.7056 -23.6427 -10.6985  -9.2223  -5.0124  -2.7563  -1.4729  -1.3334
     3.1122   3.1209

          k = 0.1250 0.2165 0.0000 ( 20077 PWs)   bands (ev):

   -24.2422 -24.1925 -24.1460 -24.0407 -24.0128 -23.8187 -23.8017 -23.7893
   -23.7887 -23.7228 -11.9413  -6.6118  -4.2594  -3.9842  -1.2297   0.5121
     0.8585   1.4746

          k = 0.1250 0.2646 0.0000 ( 20086 PWs)   bands (ev):

   -24.2659 -24.2033 -24.1452 -24.0437 -24.0063 -23.8259 -23.7888 -23.7858
   -23.7771 -23.7090 -11.7971  -7.0654  -4.4832  -3.8376  -1.0009   0.5083
     0.6646   1.6299

          k = 0.1250 0.3127 0.0000 ( 20092 PWs)   bands (ev):

   -24.2879 -24.2147 -24.1436 -24.0467 -23.9989 -23.8340 -23.7829 -23.7823
   -23.7640 -23.6915 -11.6267  -7.5163  -4.6903  -3.6656  -0.9012   0.1441
     0.9950   1.8156

          k = 0.1250 0.3608 0.0000 ( 20080 PWs)   bands (ev):

   -24.3074 -24.2256 -24.1415 -24.0495 -23.9910 -23.8426 -23.7804 -23.7801
   -23.7504 -23.6734 -11.4326  -7.9538  -4.8707  -3.4714  -0.8948  -0.2220
     1.4637   2.0326

          k = 0.1250 0.4089 0.0000 ( 20114 PWs)   bands (ev):

   -24.3238 -24.2351 -24.1394 -24.0520 -23.9830 -23.8511 -23.7804 -23.7777
   -23.7384 -23.6570 -11.2200  -8.3671  -5.0191  -3.2606  -0.9287  -0.5776
     2.0050   2.2866

          k = 0.1250 0.4570 0.0000 ( 20113 PWs)   bands (ev):

   -24.3364 -24.2427 -24.1376 -24.0540 -23.9757 -23.8589 -23.7811 -23.7757
   -23.7289 -23.6438 -10.9992  -8.7416  -5.1323  -3.0441  -0.9705  -0.9069
     2.4887   2.6585

          k = 0.1250 0.5051 0.0000 ( 20113 PWs)   bands (ev):

   -24.3450 -24.2479 -24.1362 -24.0554 -23.9698 -23.8651 -23.7818 -23.7744
   -23.7223 -23.6345 -10.7937  -9.0510  -5.2085  -2.8450  -1.1831  -1.0043
     2.8081   2.8457

          k = 0.1250 0.5532 0.0000 ( 20114 PWs)   bands (ev):

   -24.3494 -24.2506 -24.1355 -24.0561 -23.9665 -23.8686 -23.7822 -23.7737
   -23.7189 -23.6297 -10.6552  -9.2419  -5.2468  -2.7127  -1.3546  -1.0228
     2.8190   3.0898

          k = 0.1666 0.2886 0.0000 ( 20089 PWs)   bands (ev):

   -24.2890 -24.2086 -24.1463 -24.0468 -23.9989 -23.8339 -23.7828 -23.7760
   -23.7736 -23.6908 -11.6403  -7.4708  -4.7293  -3.6792  -0.6888   0.1802
     0.7243   1.7970

          k = 0.1666 0.3367 0.0000 ( 20084 PWs)   bands (ev):

   -24.3100 -24.2147 -24.1463 -24.0498 -23.9907 -23.8426 -23.7798 -23.7739
   -23.7630 -23.6715 -11.4582  -7.8765  -4.9527  -3.4966  -0.4984  -0.1585
     0.9653   1.9939

          k = 0.1666 0.3848 0.0000 ( 20093 PWs)   bands (ev):

   -24.3281 -24.2209 -24.1457 -24.0527 -23.9821 -23.8519 -23.7771 -23.7748
   -23.7519 -23.6534 -11.2542  -8.2722  -5.1423  -3.2938  -0.4978  -0.4376
     1.3888   2.2195

          k = 0.1666 0.4329 0.0000 ( 20113 PWs)   bands (ev):

   -24.3427 -24.2264 -24.1447 -24.0551 -23.9735 -23.8609 -23.7762 -23.7748
   -23.7427 -23.6381 -11.0348  -8.6460  -5.2928  -3.0778  -0.8254  -0.4427
     1.9221   2.4715

          k = 0.1666 0.4810 0.0000 ( 20107 PWs)   bands (ev):

   -24.3534 -24.2308 -24.1437 -24.0569 -23.9659 -23.8689 -23.7775 -23.7731
   -23.7358 -23.6265 -10.8142  -8.9798  -5.4014  -2.8629  -1.1229  -0.4660
     2.4996   2.6256

          k = 0.1666 0.5291 0.0000 ( 20106 PWs)   bands (ev):

   -24.3600 -24.2335 -24.1429 -24.0580 -23.9603 -23.8747 -23.7784 -23.7720
   -23.7316 -23.6194 -10.6272  -9.2359  -5.4669  -2.6829  -1.3537  -0.4859
     2.5678   3.0000

          k = 0.1666 0.5772 0.0000 ( 20103 PWs)   bands (ev):

   -24.3622 -24.2344 -24.1427 -24.0584 -23.9582 -23.8768 -23.7787 -23.7716
   -23.7301 -23.6169 -10.5462  -9.3400  -5.4888  -2.6059  -1.4478  -0.4933
     2.5477   3.1446

          k = 0.2083 0.3608 0.0000 ( 20087 PWs)   bands (ev):

   -24.3295 -24.2152 -24.1486 -24.0529 -23.9817 -23.8522 -23.7769 -23.7701
   -23.7593 -23.6522 -11.2657  -8.2378  -5.1882  -3.3050  -0.4692  -0.1564
     1.0623   2.2021

          k = 0.2083 0.4089 0.0000 ( 20099 PWs)   bands (ev):

   -24.3459 -24.2162 -24.1501 -24.0557 -23.9722 -23.8621 -23.7743 -23.7708
   -23.7528 -23.6352 -11.0532  -8.5917  -5.3841  -3.0951  -0.7795   0.0307
     1.3702   2.4378

          k = 0.2083 0.4570 0.0000 ( 20115 PWs)   bands (ev):

   -24.3586 -24.2173 -24.1510 -24.0579 -23.9629 -23.8718 -23.7724 -23.7722
   -23.7469 -23.6216 -10.8287  -8.9261  -5.5340  -2.8756  -1.0778   0.0876
     1.8506   2.4827

          k = 0.2083 0.5051 0.0000 ( 20122 PWs)   bands (ev):

   -24.3673 -24.2184 -24.1513 -24.0595 -23.9548 -23.8801 -23.7737 -23.7707
   -23.7427 -23.6121 -10.6119  -9.2180  -5.6349  -2.6658  -1.3417   0.0935
     2.3861   2.3927

          k = 0.2083 0.5532 0.0000 ( 20133 PWs)   bands (ev):

   -24.3716 -24.2189 -24.1514 -24.0603 -23.9499 -23.8852 -23.7744 -23.7699
   -23.7405 -23.6073 -10.4558  -9.4123  -5.6856  -2.5165  -1.5186   0.0896
     2.3364   2.8302

          k = 0.2499 0.4329 0.0000 ( 20133 PWs)   bands (ev):

   -24.3603 -24.2119 -24.1544 -24.0583 -23.9618 -23.8729 -23.7718 -23.7691
   -23.7522 -23.6199 -10.8339  -8.9060  -5.5812  -2.8801  -1.0610   0.4161
     1.4887   2.4328

          k = 0.2499 0.4810 0.0000 ( 20115 PWs)   bands (ev):

   -24.3709 -24.2083 -24.1579 -24.0603 -23.9515 -23.8833 -23.7699 -23.7691
   -23.7506 -23.6084 -10.6056  -9.2039  -5.7256  -2.6583  -1.3315   0.6168
     1.8245   2.2909

          k = 0.2499 0.5291 0.0000 ( 20109 PWs)   bands (ev):

   -24.3774 -24.2058 -24.1603 -24.0615 -23.9429 -23.8921 -23.7696 -23.7688
   -23.7491 -23.6014 -10.3953  -9.4568  -5.8134  -2.4560  -1.5636   0.6803
     2.2028   2.2708

          k = 0.2499 0.5772 0.0000 ( 20109 PWs)   bands (ev):

   -24.3796 -24.2049 -24.1612 -24.0619 -23.9392 -23.8959 -23.7698 -23.7684
   -23.7486 -23.5990 -10.2916  -9.5748  -5.8428  -2.3573  -1.6723   0.6930
     2.1731   2.5212

          k = 0.2916 0.5051 0.0000 ( 20105 PWs)   bands (ev):

   -24.3794 -24.1997 -24.1649 -24.0620 -23.9400 -23.8950 -23.7684 -23.7666
   -23.7534 -23.5994 -10.3739  -9.4718  -5.8577  -2.4344  -1.5791   1.0510
     1.8990   2.1570

          k = 0.2916 0.5532 0.0000 ( 20115 PWs)   bands (ev):

   -24.3836 -24.1935 -24.1705 -24.0628 -23.9304 -23.9047 -23.7676 -23.7652
   -23.7550 -23.5947 -10.1680  -9.6958  -5.9249  -2.2373  -1.7880   1.2572
     2.0887   2.0887

          k = 0.3332 0.5772 0.0000 ( 20085 PWs)   bands (ev):

   -24.3857 -24.1816 -24.1816 -24.0633 -23.9175 -23.9175 -23.7671 -23.7604
   -23.7604 -23.5924  -9.9337  -9.9337  -5.9628  -2.0134  -2.0134   1.7558
     1.7558   2.0501

     the Fermi energy is    -2.3749 ev

!    total energy              =    -317.73809461 Ry
     estimated scf accuracy    <          9.2E-10 Ry
     smearing contrib. (-TS)   =       0.00028858 Ry
     internal energy E=F+TS    =    -317.73838319 Ry

     The total energy is F=E-TS. E is the sum of the following terms:
     one-electron contribution =    -884.45066500 Ry
     hartree contribution      =     448.90662911 Ry
     xc contribution           =     -85.00346920 Ry
     ewald contribution        =     202.80912190 Ry

     convergence has been achieved in  13 iterations

     negative rho (up, down):  5.345E-05 0.000E+00

     Forces acting on atoms (cartesian axes, Ry/au):

     atom    1 type  1   force =     0.00000000    0.00000000    0.00000000
     atom    2 type  1   force =     0.00000000    0.00000000    0.00000000
     The non-local contrib.  to forces
     atom    1 type  1   force =    -0.00000000   -0.00000000    0.00000000
     atom    2 type  1   force =     0.00000000    0.00000000    0.00000000
     The ionic contribution  to forces
     atom    1 type  1   force =    -0.00000003    0.00000002    0.00000000
     atom    2 type  1   force =     0.00000003   -0.00000002    0.00000000
     The local contribution  to forces
     atom    1 type  1   force =    -0.00000000    0.00000042   -0.00000000
     atom    2 type  1   force =     0.00000036    0.00000021   -0.00000000
     The core correction contribution to forces
     atom    1 type  1   force =     0.00000000    0.00000004   -0.00000000
     atom    2 type  1   force =     0.00000004    0.00000002   -0.00000000
     The Hubbard contrib.    to forces
     atom    1 type  1   force =     0.00000000    0.00000000    0.00000000
     atom    2 type  1   force =     0.00000000    0.00000000    0.00000000
     The SCF correction term to forces
     atom    1 type  1   force =     0.00000000    0.00000000   -0.00000000
     atom    2 type  1   force =     0.00000000    0.00000000   -0.00000000

     Total force =     0.000000     Total SCF correction =     0.000000


     Computing stress (Cartesian axis) and pressure


     negative rho (up, down):  5.345E-05 0.000E+00
          total   stress  (Ry/bohr**3)                   (kbar)     P=        0.90
   0.00001040  -0.00000000  -0.00000000            1.53       -0.00       -0.00
  -0.00000000   0.00001040  -0.00000000           -0.00        1.53       -0.00
  -0.00000000  -0.00000000  -0.00000254           -0.00       -0.00       -0.37

     Energy error            =      7.7E-06 Ry
     Gradient error          =      0.0E+00 Ry/Bohr
     Cell gradient error     =      1.5E+00 kbar

     number of scf cycles    =   3
     number of bfgs steps    =   2

     enthalpy           old  =    -317.7380869061 Ry
     enthalpy           new  =    -317.7380946119 Ry

     CASE: enthalpy          _new < enthalpy          _old

     new trust radius        =       0.0020356963 bohr
     new conv_thr            =       0.0000000010 Ry

     new unit-cell volume =   2562.39432 a.u.^3 (   379.70766 Ang^3 )
     density =      1.03829 g/cm^3

CELL_PARAMETERS (alat=  8.84391826)
   1.000457200  -0.000000000   0.000000000
  -0.500228600   0.866421350   0.000000000
   0.000000000   0.000000000   4.273504274

ATOMIC_POSITIONS (crystal)
Sn            0.3333333330        0.6666666660        0.5000000000
Sn            0.6666666660        0.3333333330        0.5000000000



     Writing config-only to output data dir ../tmp/stanene.save/
     NEW-OLD atomic charge density approx. for the potential

     negative rho (up, down):  6.492E-05 0.000E+00
     extrapolated charge   28.01045, renormalised to   28.00000

     total cpu time spent up to now is     7791.6 secs

     Self-consistent Calculation

     iteration #  1     ecut=    60.00 Ry     beta= 0.70
     Davidson diagonalization with overlap
     ethr =  1.00E-06,  avg # of iterations =  3.1

     negative rho (up, down):  5.613E-05 0.000E+00

     total cpu time spent up to now is     8037.2 secs

     total energy              =    -317.73804541 Ry
     estimated scf accuracy    <       0.00003742 Ry

     iteration #  2     ecut=    60.00 Ry     beta= 0.70
     Davidson diagonalization with overlap
     ethr =  1.34E-07,  avg # of iterations =  3.4

     negative rho (up, down):  5.401E-05 0.000E+00

     total cpu time spent up to now is     8313.1 secs

     total energy              =    -317.73810552 Ry
     estimated scf accuracy    <       0.00005977 Ry

     iteration #  3     ecut=    60.00 Ry     beta= 0.70
     Davidson diagonalization with overlap
     ethr =  1.34E-07,  avg # of iterations =  2.0

     negative rho (up, down):  5.338E-05 0.000E+00

     total cpu time spent up to now is     8504.2 secs

     total energy              =    -317.73810667 Ry
     estimated scf accuracy    <       0.00001125 Ry

     iteration #  4     ecut=    60.00 Ry     beta= 0.70
     Davidson diagonalization with overlap
     ethr =  4.02E-08,  avg # of iterations =  1.0

     negative rho (up, down):  5.322E-05 0.000E+00

     total cpu time spent up to now is     8644.6 secs

     total energy              =    -317.73810610 Ry
     estimated scf accuracy    <       0.00000412 Ry

     iteration #  5     ecut=    60.00 Ry     beta= 0.70
     Davidson diagonalization with overlap
     ethr =  1.47E-08,  avg # of iterations =  2.0

     negative rho (up, down):  5.315E-05 0.000E+00

     total cpu time spent up to now is     8832.0 secs

     total energy              =    -317.73810626 Ry
     estimated scf accuracy    <       0.00000181 Ry

     iteration #  6     ecut=    60.00 Ry     beta= 0.70
     Davidson diagonalization with overlap
     ethr =  6.46E-09,  avg # of iterations =  1.0

     negative rho (up, down):  5.313E-05 0.000E+00

     total cpu time spent up to now is     8972.7 secs

     total energy              =    -317.73810633 Ry
     estimated scf accuracy    <       0.00000135 Ry

     iteration #  7     ecut=    60.00 Ry     beta= 0.70
     Davidson diagonalization with overlap
     ethr =  4.81E-09,  avg # of iterations =  1.0

     negative rho (up, down):  5.311E-05 0.000E+00

     total cpu time spent up to now is     9116.6 secs

     total energy              =    -317.73810648 Ry
     estimated scf accuracy    <       0.00000138 Ry

     iteration #  8     ecut=    60.00 Ry     beta= 0.70
     Davidson diagonalization with overlap
     ethr =  4.81E-09,  avg # of iterations =  1.0

     negative rho (up, down):  5.316E-05 0.000E+00

     total cpu time spent up to now is     9257.6 secs

     total energy              =    -317.73810574 Ry
     estimated scf accuracy    <       0.00000165 Ry

     iteration #  9     ecut=    60.00 Ry     beta= 0.70
     Davidson diagonalization with overlap
     ethr =  4.81E-09,  avg # of iterations =  2.0

     negative rho (up, down):  5.319E-05 0.000E+00

     total cpu time spent up to now is     9448.6 secs

     total energy              =    -317.73810565 Ry
     estimated scf accuracy    <       0.00000031 Ry

     iteration # 10     ecut=    60.00 Ry     beta= 0.70
     Davidson diagonalization with overlap
     ethr =  1.10E-09,  avg # of iterations =  3.3

     negative rho (up, down):  5.319E-05 0.000E+00

     total cpu time spent up to now is     9702.4 secs

     total energy              =    -317.73810575 Ry
     estimated scf accuracy    <          1.3E-09 Ry

     iteration # 11     ecut=    60.00 Ry     beta= 0.70
     Davidson diagonalization with overlap
     ethr =  4.61E-12,  avg # of iterations =  7.0

     negative rho (up, down):  5.318E-05 0.000E+00

     total cpu time spent up to now is    10206.5 secs

     total energy              =    -317.73810576 Ry
     estimated scf accuracy    <          6.1E-09 Ry

     iteration # 12     ecut=    60.00 Ry     beta= 0.70
     Davidson diagonalization with overlap
     ethr =  4.61E-12,  avg # of iterations =  1.0

     negative rho (up, down):  5.318E-05 0.000E+00

     total cpu time spent up to now is    10355.3 secs

     total energy              =    -317.73810576 Ry
     estimated scf accuracy    <          6.2E-09 Ry

     iteration # 13     ecut=    60.00 Ry     beta= 0.70
     Davidson diagonalization with overlap
     ethr =  4.61E-12,  avg # of iterations =  2.0

[...]

     iteration #  9     ecut=    60.00 Ry     beta= 0.70
     Davidson diagonalization with overlap
     c_bands:  1 eigenvalues not converged
     ethr =  3.04E-10,  avg # of iterations =  2.5

     negative rho (up, down):  5.395E-05 0.000E+00

     total cpu time spent up to now is    43519.0 secs

     total energy              =    -317.73830837 Ry
     estimated scf accuracy    <          3.3E-09 Ry

     iteration # 10     ecut=    60.00 Ry     beta= 0.70
     Davidson diagonalization with overlap
     ethr =  1.20E-11,  avg # of iterations =  2.6

     negative rho (up, down):  5.395E-05 0.000E+00

     total cpu time spent up to now is    43736.7 secs

     End of self-consistent calculation

          k = 0.0000 0.0000 0.0000 ( 20181 PWs)   bands (ev):

   -24.1582 -24.1478 -24.1478 -24.0446 -24.0446 -23.8921 -23.8921 -23.8216
   -23.8216 -23.7645 -12.2967  -4.3742  -3.9675  -3.4880  -3.4880   0.4938
     0.4938   1.0001

          k = 0.0000 0.0478 0.0000 ( 20147 PWs)   bands (ev):

   -24.1594 -24.1522 -24.1506 -24.0450 -24.0439 -23.8880 -23.8873 -23.8223
   -23.8212 -23.7644 -12.2820  -4.3591  -4.3539  -3.5210  -3.1195   0.4745
     0.5565   1.0219

          k = 0.0000 0.0957 0.0000 ( 20207 PWs)   bands (ev):

   -24.1678 -24.1643 -24.1531 -24.0460 -24.0420 -23.8769 -23.8739 -23.8246
   -23.8201 -23.7639 -12.2383  -4.9117  -4.3137  -3.6133  -2.6252   0.4459
     1.0813   2.0332

          k = 0.0000 0.1435 0.0000 ( 20237 PWs)   bands (ev):

   -24.1840 -24.1816 -24.1523 -24.0477 -24.0388 -23.8614 -23.8547 -23.8282
   -23.8185 -23.7626 -12.1655  -5.4787  -4.2386  -3.7484  -2.1981   0.4753
     1.0207   1.1712

          k = 0.0000 0.1914 0.0000 ( 20261 PWs)   bands (ev):

   -24.2036 -24.2014 -24.1505 -24.0499 -24.0345 -23.8449 -23.8332 -23.8323
   -23.8163 -23.7597 -12.0642  -6.0372  -4.1344  -3.9074  -1.8981   0.6350
     1.2375   1.2908

          k = 0.0000 0.2392 0.0000 ( 20299 PWs)   bands (ev):

   -24.2241 -24.2218 -24.1482 -24.0524 -24.0291 -23.8392 -23.8304 -23.8139
   -23.8089 -23.7541 -11.9349  -6.5794  -4.0740  -4.0023  -1.7486   0.8535
     0.9567   1.4457

          k = 0.0000 0.2871 0.0000 ( 20293 PWs)   bands (ev):

   -24.2440 -24.2414 -24.1456 -24.0550 -24.0230 -23.8460 -23.8201 -23.8113
   -23.7860 -23.7451 -11.7791  -7.0999  -4.2358  -3.8439  -1.7166   0.4552
     1.3856   1.6667

          k = 0.0000 0.3349 0.0000 ( 20323 PWs)   bands (ev):

   -24.2622 -24.2592 -24.1430 -24.0575 -24.0164 -23.8533 -23.8142 -23.8087
   -23.7650 -23.7334 -11.5987  -7.5933  -4.3836  -3.6621  -1.7490   0.0562
     1.7269   2.0983

          k = 0.0000 0.3828 0.0000 ( 20337 PWs)   bands (ev):

   -24.2780 -24.2745 -24.1405 -24.0599 -24.0097 -23.8608 -23.8114 -23.8064
   -23.7466 -23.7209 -11.3977  -8.0533  -4.5113  -3.4615  -1.8061  -0.3305
     1.9833   2.6931

          k = 0.0000 0.4306 0.0000 ( 20315 PWs)   bands (ev):

   -24.2908 -24.2868 -24.1383 -24.0618 -24.0033 -23.8677 -23.8104 -23.8045
   -23.7316 -23.7096 -11.1842  -8.4702  -4.6144  -3.2504  -1.8649  -0.6912
     2.2477   3.1149

          k = 0.0000 0.4785 0.0000 ( 20337 PWs)   bands (ev):

   -24.3002 -24.2959 -24.1366 -24.0633 -23.9980 -23.8735 -23.8103 -23.8030
   -23.7205 -23.7008 -10.9746  -8.8260  -4.6900  -3.0456  -1.9131  -1.0052
     2.5325   3.3077

          k = 0.0000 0.5263 0.0000 ( 20331 PWs)   bands (ev):

   -24.3060 -24.3014 -24.1356 -24.0642 -23.9944 -23.8774 -23.8104 -23.8021
   -23.7137 -23.6953 -10.8044  -9.0844  -4.7360  -2.8813  -1.9441  -1.2359
     2.8318   3.4337

          k =-0.0000-0.5742 0.0000 ( 20316 PWs)   bands (ev):

   -24.3079 -24.3033 -24.1352 -24.0645 -23.9931 -23.8788 -23.8104 -23.8018
   -23.7114 -23.6934 -10.7344  -9.1837  -4.7515  -2.8144  -1.9547  -1.3251
     3.0489   3.3387

          k = 0.0414 0.0718 0.0000 ( 20185 PWs)   bands (ev):

   -24.1660 -24.1570 -24.1548 -24.0457 -24.0426 -23.8804 -23.8782 -23.8238
   -23.8205 -23.7641 -12.2528  -4.7592  -4.3288  -3.5873  -2.7502   0.4424
     0.6863   1.0621

          k = 0.0414 0.1196 0.0000 ( 20239 PWs)   bands (ev):

   -24.1819 -24.1692 -24.1545 -24.0471 -24.0400 -23.8672 -23.8620 -23.8268
   -23.8191 -23.7631 -12.1946  -5.2757  -4.2686  -3.7096  -2.3199   0.4194
     0.9382   1.1353

          k = 0.0414 0.1675 0.0000 ( 20261 PWs)   bands (ev):

   -24.2020 -24.1855 -24.1529 -24.0491 -24.0362 -23.8512 -23.8417 -23.8312
   -23.8171 -23.7609 -12.1075  -5.8139  -4.1789  -3.8666  -1.9557   0.4780
     1.2355   1.2906

          k = 0.0414 0.2153 0.0000 ( 20285 PWs)   bands (ev):

   -24.2237 -24.2037 -24.1507 -24.0515 -24.0313 -23.8367 -23.8356 -23.8197
   -23.8148 -23.7563 -11.9922  -6.3493  -4.0607  -4.0388  -1.7212   0.6822
     1.0195   1.3689

          k = 0.0414 0.2632 0.0000 ( 20290 PWs)   bands (ev):

   -24.2452 -24.2220 -24.1481 -24.0541 -24.0255 -23.8432 -23.8232 -23.8122
   -23.7979 -23.7481 -11.8495  -6.8707  -4.2110  -3.9153  -1.6248   0.6328
     1.0428   1.5360

          k = 0.0414 0.3110 0.0000 ( 20320 PWs)   bands (ev):

   -24.2652 -24.2394 -24.1455 -24.0567 -24.0190 -23.8504 -23.8154 -23.8096
   -23.7775 -23.7362 -11.6810  -7.3710  -4.3723  -3.7449  -1.6232   0.2375
     1.4942   1.7650

          k = 0.0414 0.3588 0.0000 ( 20312 PWs)   bands (ev):

   -24.2830 -24.2548 -24.1429 -24.0592 -24.0122 -23.8579 -23.8115 -23.8071
   -23.7594 -23.7224 -11.4897  -7.8434  -4.5152  -3.5530  -1.6673  -0.1530
     1.8517   2.1914

          k = 0.0414 0.4067 0.0000 ( 20324 PWs)   bands (ev):

   -24.2979 -24.2678 -24.1405 -24.0614 -24.0054 -23.8653 -23.8100 -23.8050
   -23.7441 -23.7090 -11.2810  -8.2798  -4.6344  -3.3457  -1.7248  -0.5259
     2.1210   2.7690

          k = 0.0414 0.4545 0.0000 ( 20326 PWs)   bands (ev):

   -24.3095 -24.2779 -24.1385 -24.0631 -23.9994 -23.8719 -23.8096 -23.8032
   -23.7323 -23.6978 -11.0662  -8.6669  -4.7265  -3.1346  -1.7780  -0.8646
     2.3978   3.1830

          k = 0.0414 0.5024 0.0000 ( 20356 PWs)   bands (ev):

   -24.3174 -24.2848 -24.1371 -24.0644 -23.9947 -23.8769 -23.8097 -23.8020
   -23.7241 -23.6898 -10.8696  -8.9792  -4.7890  -2.9436  -1.8173  -1.1423
     2.6922   3.2986

          k = 0.0414 0.5502 0.0000 ( 20342 PWs)   bands (ev):

   -24.3213 -24.2883 -24.1364 -24.0650 -23.9921 -23.8797 -23.8099 -23.8014
   -23.7200 -23.6857 -10.7404  -9.1664  -4.8207  -2.8196  -1.8380  -1.3102
     2.9822   3.3400

          k = 0.0829 0.1435 0.0000 ( 20261 PWs)   bands (ev):

   -24.2018 -24.1779 -24.1553 -24.0489 -24.0367 -23.8535 -23.8451 -23.8305
   -23.8174 -23.7613 -12.1220  -5.7304  -4.1938  -3.8663  -1.9586   0.3927
     1.2193   2.1528

          k = 0.0829 0.1914 0.0000 ( 20283 PWs)   bands (ev):

   -24.2240 -24.1910 -24.1543 -24.0511 -24.0322 -23.8381 -23.8356 -23.8262
   -23.8151 -23.7570 -12.0208  -6.2177  -4.0900  -4.0535  -1.6398   0.4436
     1.1102   1.3322

          k = 0.0829 0.2392 0.0000 ( 20293 PWs)   bands (ev):

   -24.2466 -24.2061 -24.1523 -24.0537 -24.0267 -23.8418 -23.8242 -23.8126
   -23.8079 -23.7488 -11.8919  -6.7114  -4.2478  -3.9583  -1.4333   0.6397
     0.7518   1.4748

          k = 0.0829 0.2871 0.0000 ( 20315 PWs)   bands (ev):

   -24.2683 -24.2213 -24.1499 -24.0564 -24.0202 -23.8489 -23.8146 -23.8099
   -23.7907 -23.7360 -11.7362  -7.1974  -4.4337  -3.8005  -1.3528   0.3749
     0.9956   1.6485

          k = 0.0829 0.3349 0.0000 ( 20317 PWs)   bands (ev):

   -24.2879 -24.2356 -24.1473 -24.0591 -24.0133 -23.8565 -23.8098 -23.8073
   -23.7746 -23.7205 -11.5560  -7.6659  -4.6014  -3.6191  -1.3569  -0.0064
     1.4651   1.8599

          k = 0.0829 0.3828 0.0000 ( 20330 PWs)   bands (ev):

   -24.3049 -24.2481 -24.1449 -24.0616 -24.0061 -23.8643 -23.8080 -23.8049
   -23.7603 -23.7049 -11.3550  -8.1082  -4.7445  -3.4186  -1.3989  -0.3796
     1.9489   2.1586

          k = 0.0829 0.4306 0.0000 ( 20336 PWs)   bands (ev):

   -24.3186 -24.2583 -24.1427 -24.0636 -23.9993 -23.8717 -23.8076 -23.8029
   -23.7484 -23.6912 -11.1408  -8.5131  -4.8591  -3.2070  -1.4495  -0.7307
     2.2810   2.6705

          k = 0.0829 0.4785 0.0000 ( 20345 PWs)   bands (ev):

   -24.3286 -24.2658 -24.1410 -24.0652 -23.9934 -23.8780 -23.8079 -23.8013
   -23.7395 -23.6808 -10.9294  -8.8623  -4.9426  -3.0006  -1.4932  -1.0395
     2.5743   3.0744

          k = 0.0829 0.5263 0.0000 ( 20352 PWs)   bands (ev):

   -24.3348 -24.2705 -24.1399 -24.0661 -23.9894 -23.8822 -23.8082 -23.8004
   -23.7340 -23.6743 -10.7562  -9.1187  -4.9932  -2.8335  -1.5219  -1.2690
     2.8731   3.0767

          k = 0.0829 0.5742 0.0000 ( 20335 PWs)   bands (ev):

   -24.3368 -24.2720 -24.1395 -24.0665 -23.9880 -23.8838 -23.8083 -23.8001
   -23.7322 -23.6720 -10.6844  -9.2185  -5.0102  -2.7648  -1.5318  -1.3587
     3.0728   3.0839

          k = 0.1243 0.2153 0.0000 ( 20295 PWs)   bands (ev):

   -24.2471 -24.1995 -24.1548 -24.0537 -24.0270 -23.8414 -23.8239 -23.8127
   -23.8122 -23.7489 -11.9060  -6.6532  -4.2712  -3.9727  -1.3255   0.4588
     0.7941   1.4566

          k = 0.1243 0.2632 0.0000 ( 20310 PWs)   bands (ev):

   -24.2698 -24.2098 -24.1541 -24.0565 -24.0207 -23.8482 -23.8117 -23.8100
   -23.8006 -23.7356 -11.7639  -7.0997  -4.4902  -3.8284  -1.0937   0.4503
     0.6060   1.6104

          k = 0.1243 0.3110 0.0000 ( 20305 PWs)   bands (ev):

   -24.2909 -24.2208 -24.1525 -24.0593 -24.0136 -23.8560 -23.8072 -23.8056
   -23.7880 -23.7188 -11.5960  -7.5435  -4.6931  -3.6590  -0.9863   0.0925
     0.9257   1.7942

          k = 0.1243 0.3588 0.0000 ( 20331 PWs)   bands (ev):

   -24.3096 -24.2312 -24.1506 -24.0620 -24.0060 -23.8641 -23.8045 -23.8039
   -23.7751 -23.7015 -11.4049  -7.9740  -4.8702  -3.4678  -0.9723  -0.2673
     1.3833   2.0080

          k = 0.1243 0.4067 0.0000 ( 20317 PWs)   bands (ev):

   -24.3253 -24.2403 -24.1486 -24.0644 -23.9984 -23.8723 -23.8040 -23.8022
   -23.7636 -23.6858 -11.1956  -8.3805  -5.0158  -3.2604  -1.0008  -0.6169
     1.9187   2.2550

          k = 0.1243 0.4545 0.0000 ( 20343 PWs)   bands (ev):

   -24.3374 -24.2476 -24.1468 -24.0663 -23.9914 -23.8798 -23.8046 -23.8004
   -23.7545 -23.6731 -10.9786  -8.7486  -5.1270  -3.0474  -1.0391  -0.9406
     2.4400   2.5775

          k = 0.1243 0.5024 0.0000 ( 20360 PWs)   bands (ev):

   -24.3457 -24.2526 -24.1456 -24.0676 -23.9857 -23.8857 -23.8053 -23.7991
   -23.7481 -23.6642 -10.7769  -9.0525  -5.2019  -2.8517  -1.2120  -1.0709
     2.7761   2.8119

          k = 0.1243 0.5502 0.0000 ( 20354 PWs)   bands (ev):

   -24.3499 -24.2552 -24.1449 -24.0683 -23.9826 -23.8891 -23.8057 -23.7984
   -23.7449 -23.6597 -10.6414  -9.2395  -5.2395  -2.7217  -1.3804  -1.0883
     2.7846   3.0524

          k = 0.1657 0.2871 0.0000 ( 20327 PWs)   bands (ev):

   -24.2919 -24.2149 -24.1551 -24.0594 -24.0137 -23.8558 -23.8071 -23.7995
   -23.7975 -23.7182 -11.6093  -7.4993  -4.7311  -3.6724  -0.7843   0.1277
     0.6660   1.7761

          k = 0.1657 0.3349 0.0000 ( 20308 PWs)   bands (ev):

   -24.3120 -24.2208 -24.1552 -24.0623 -24.0058 -23.8642 -23.8043 -23.7977
   -23.7871 -23.6996 -11.4300  -7.8990  -4.9499  -3.4927  -0.5903  -0.2055
     0.8997   1.9710

          k = 0.1657 0.3828 0.0000 ( 20325 PWs)   bands (ev):

   -24.3294 -24.2267 -24.1546 -24.0650 -23.9975 -23.8730 -23.8017 -23.7986
   -23.7764 -23.6823 -11.2292  -8.2886  -5.1359  -3.2930  -0.5391  -0.5225
     1.3114   2.1941

          k = 0.1657 0.4306 0.0000 ( 20342 PWs)   bands (ev):

   -24.3435 -24.2320 -24.1536 -24.0673 -23.9893 -23.8817 -23.8000 -23.7995
   -23.7677 -23.6677 -11.0134  -8.6565  -5.2835  -3.0804  -0.8613  -0.5219
     1.8334   2.4434

          k = 0.1657 0.4785 0.0000 ( 20349 PWs)   bands (ev):

   -24.3538 -24.2362 -24.1527 -24.0690 -23.9820 -23.8893 -23.8012 -23.7978
   -23.7611 -23.6566 -10.7966  -8.9846  -5.3902  -2.8691  -1.1538  -0.5418
     2.4015   2.5949

          k = 0.1657 0.5263 0.0000 ( 20366 PWs)   bands (ev):

   -24.3601 -24.2388 -24.1520 -24.0701 -23.9767 -23.8948 -23.8021 -23.7968
   -23.7570 -23.6498 -10.6131  -9.2360  -5.4546  -2.6922  -1.3806  -0.5598
     2.5378   2.9171

          k = 0.1657 0.5742 0.0000 ( 20355 PWs)   bands (ev):

   -24.3622 -24.2397 -24.1518 -24.0705 -23.9747 -23.8969 -23.8024 -23.7964
   -23.7557 -23.6475 -10.5339  -9.3380  -5.4761  -2.6165  -1.4731  -0.5666
     2.5180   3.0781

          k = 0.2072 0.3588 0.0000 ( 20297 PWs)   bands (ev):

   -24.3308 -24.2213 -24.1574 -24.0653 -23.9972 -23.8733 -23.8015 -23.7942
   -23.7835 -23.6811 -11.2405  -8.2554  -5.1804  -3.3040  -0.5113  -0.2529
     0.9967   2.1771

          k = 0.2072 0.4067 0.0000 ( 20321 PWs)   bands (ev):

   -24.3465 -24.2222 -24.1589 -24.0679 -23.9881 -23.8828 -23.7990 -23.7948
   -23.7773 -23.6649 -11.0313  -8.6042  -5.3724  -3.0975  -0.8168  -0.0627
     1.2956   2.4113

          k = 0.2072 0.4545 0.0000 ( 20340 PWs)   bands (ev):

   -24.3587 -24.2233 -24.1597 -24.0700 -23.9791 -23.8921 -23.7970 -23.7963
   -23.7717 -23.6519 -10.8105  -8.9335  -5.5194  -2.8814  -1.1103  -0.0002
     1.7630   2.4546

          k = 0.2072 0.5024 0.0000 ( 20343 PWs)   bands (ev):

   -24.3670 -24.2243 -24.1600 -24.0715 -23.9714 -23.9000 -23.7975 -23.7955
   -23.7677 -23.6429 -10.5974  -9.2207  -5.6184  -2.6750  -1.3699   0.0095
     2.2924   2.3595

          k = 0.2072 0.5502 0.0000 ( 20332 PWs)   bands (ev):

   -24.3712 -24.2248 -24.1601 -24.0723 -23.9667 -23.9049 -23.7982 -23.7948
   -23.7656 -23.6383 -10.4443  -9.4114  -5.6681  -2.5283  -1.5438   0.0073
     2.3105   2.7223

          k = 0.2486 0.4306 0.0000 ( 20321 PWs)   bands (ev):

   -24.3604 -24.2181 -24.1629 -24.0704 -23.9781 -23.8931 -23.7966 -23.7931
   -23.7768 -23.6503 -10.8154  -8.9145  -5.5653  -2.8858  -1.0941   0.3168
     1.4128   2.4060

          k = 0.2486 0.4785 0.0000 ( 20325 PWs)   bands (ev):

   -24.3705 -24.2146 -24.1663 -24.0723 -23.9683 -23.9031 -23.7949 -23.7931
   -23.7752 -23.6393 -10.5909  -9.2082  -5.7067  -2.6675  -1.3605   0.5197
     1.7372   2.2661

          k = 0.2486 0.5263 0.0000 ( 20346 PWs)   bands (ev):

   -24.3768 -24.2123 -24.1686 -24.0734 -23.9600 -23.9115 -23.7937 -23.7936
   -23.7739 -23.6326 -10.3841  -9.4572  -5.7927  -2.4685  -1.5889   0.5871
     2.1678   2.1793

          k = 0.2486 0.5742 0.0000 ( 20331 PWs)   bands (ev):

   -24.3789 -24.2114 -24.1695 -24.0738 -23.9565 -23.9151 -23.7938 -23.7934
   -23.7733 -23.6303 -10.2823  -9.5732  -5.8215  -2.3714  -1.6959   0.6012
     2.1500   2.4081

          k = 0.2901 0.5024 0.0000 ( 20325 PWs)   bands (ev):

   -24.3786 -24.2065 -24.1731 -24.0738 -23.9573 -23.9142 -23.7934 -23.7907
   -23.7780 -23.6306 -10.3627  -9.4728  -5.8358  -2.4471  -1.6046   0.9473
     1.8064   2.1344

          k = 0.2901 0.5502 0.0000 ( 20344 PWs)   bands (ev):

   -24.3827 -24.2004 -24.1784 -24.0747 -23.9481 -23.9235 -23.7926 -23.7893
   -23.7796 -23.6262 -10.1600  -9.6937  -5.9015  -2.2531  -1.8103   1.1547
     1.9808   2.0672

          k = 0.3315 0.5742 0.0000 ( 20289 PWs)   bands (ev):

   -24.3847 -24.1891 -24.1891 -24.0751 -23.9358 -23.9358 -23.7922 -23.7847
   -23.7847 -23.6240  -9.9288  -9.9288  -5.9385  -2.0326  -2.0326   1.6466
     1.6466   2.0292

     the Fermi energy is    -2.4054 ev

!    total energy              =    -317.73830837 Ry
     estimated scf accuracy    <          3.0E-10 Ry
     smearing contrib. (-TS)   =       0.00029873 Ry
     internal energy E=F+TS    =    -317.73860711 Ry

     The total energy is F=E-TS. E is the sum of the following terms:
     one-electron contribution =    -877.49023768 Ry
     hartree contribution      =     445.40612600 Ry
     xc contribution           =     -84.99025737 Ry
     ewald contribution        =     199.33576195 Ry

     convergence has been achieved in  10 iterations

     negative rho (up, down):  5.395E-05 0.000E+00

     Forces acting on atoms (cartesian axes, Ry/au):

     atom    1 type  1   force =     0.00000000    0.00000000    0.00000000
     atom    2 type  1   force =    -0.00000000   -0.00000000    0.00000000
     The non-local contrib.  to forces
     atom    1 type  1   force =    -0.00000000   -0.00000000    0.00000000
     atom    2 type  1   force =     0.00000000    0.00000000   -0.00000000
     The ionic contribution  to forces
     atom    1 type  1   force =    -0.00000003    0.00000002    0.00000000
     atom    2 type  1   force =     0.00000003   -0.00000002    0.00000000
     The local contribution  to forces
     atom    1 type  1   force =     0.00000000    0.00000042    0.00000000
     atom    2 type  1   force =     0.00000036    0.00000021    0.00000000
     The core correction contribution to forces
     atom    1 type  1   force =     0.00000000    0.00000004    0.00000000
     atom    2 type  1   force =     0.00000004    0.00000002    0.00000000
     The Hubbard contrib.    to forces
     atom    1 type  1   force =     0.00000000    0.00000000    0.00000000
     atom    2 type  1   force =     0.00000000    0.00000000    0.00000000
     The SCF correction term to forces
     atom    1 type  1   force =     0.00000000   -0.00000000   -0.00000000
     atom    2 type  1   force =    -0.00000000   -0.00000000   -0.00000000

     Total force =     0.000000     Total SCF correction =     0.000000


     Computing stress (Cartesian axis) and pressure


     negative rho (up, down):  5.395E-05 0.000E+00
          total   stress  (Ry/bohr**3)                   (kbar)     P=        0.04
   0.00000116   0.00000000  -0.00000000            0.17        0.00       -0.00
   0.00000000   0.00000116  -0.00000000            0.00        0.17       -0.00
  -0.00000000  -0.00000000  -0.00000147           -0.00       -0.00       -0.22


     Writing all to output data dir ../tmp/stanene.save/

     init_run     :    106.54s CPU    159.81s WALL (       2 calls)
     electrons    :  28946.37s CPU  42018.55s WALL (      12 calls)
     update_pot   :     26.71s CPU     26.75s WALL (      10 calls)
     forces       :    621.78s CPU    984.29s WALL (      12 calls)
     stress       :    425.26s CPU    619.62s WALL (      12 calls)

     Called by init_run:
     wfcinit      :     91.11s CPU    139.41s WALL (       2 calls)
     potinit      :      2.13s CPU      2.15s WALL (       2 calls)
     hinit0       :      2.59s CPU      2.60s WALL (       2 calls)

     Called by electrons:
     c_bands      :  25887.24s CPU  37622.50s WALL (     185 calls)
     sum_band     :   2643.98s CPU   3764.91s WALL (     185 calls)
     v_of_rho     :     30.20s CPU     30.40s WALL (     195 calls)
     newd         :    422.25s CPU    657.31s WALL (     195 calls)
     mix_rho      :      6.72s CPU      6.45s WALL (     185 calls)

     Called by c_bands:
     init_us_2    :     34.13s CPU     42.75s WALL (   24156 calls)
     init_us_2:cp :     34.00s CPU     42.66s WALL (   24156 calls)
     cegterg      :  24898.98s CPU  36729.31s WALL (   11285 calls)

     Called by *egterg:
     cdiaghg      :   1779.72s CPU   2821.71s WALL (   40682 calls)
     h_psi        :  10416.15s CPU  15506.54s WALL (   41536 calls)
     s_psi        :    373.92s CPU    633.65s WALL (   41536 calls)
     g_psi        :      6.68s CPU      6.16s WALL (   30129 calls)

     Called by h_psi:
     h_psi:calbec :   6589.14s CPU  10631.08s WALL (   41536 calls)
     vloc_psi     :   2706.43s CPU   2492.97s WALL (   41536 calls)
     add_vuspsi   :   1111.62s CPU   2370.04s WALL (   41536 calls)

     General routines
     calbec       :   9299.32s CPU  14730.82s WALL (   56481 calls)
     fft          :     35.36s CPU     36.33s WALL (    2823 calls)
     ffts         :      2.21s CPU      2.32s WALL (     380 calls)
     fftw         :   2936.77s CPU   2766.73s WALL ( 1278188 calls)
     interpolate  :      3.16s CPU      3.28s WALL (     195 calls)

     Parallel routines

     PWSCF        :      8h22m CPU     12h11m WALL


   This run was terminated on:   9:14:12  21Jun2024            

=------------------------------------------------------------------------------=
   JOB DONE.
=------------------------------------------------------------------------------=
