
     Program PWSCF v.6.7MaX starts on 20Jan2024 at 23: 3:14 

     This program is part of the open-source Quantum ESPRESSO suite
     for quantum simulation of materials; please cite
         "P. Giannozzi et al., J. Phys.:Condens. Matter 21 395502 (2009);
         "P. Giannozzi et al., J. Phys.:Condens. Matter 29 465901 (2017);
          URL http://www.quantum-espresso.org", 
     in publications or presentations arising from this work. More details at
     http://www.quantum-espresso.org/quote

     Parallel version (MPI), running on     6 processors

     MPI processes distributed on     1 nodes
     R & G space division:  proc/nbgrp/npool/nimage =       6
     Waiting for input...
     Reading input from standard input

     Current dimensions of program PWSCF are:
     Max number of different atomic species (ntypx) = 10
     Max number of k-points (npk) =  40000
     Max angular momentum in pseudopotentials (lmaxx) =  3

     Subspace diagonalization in iterative solution of the eigenvalue problem:
     one sub-group per band group will be used
     scalapack distributed-memory algorithm (size of sub-group:  2*  2 procs)


     Parallelization info
     --------------------
     sticks:   dense  smooth     PW     G-vecs:    dense   smooth      PW
     Min         142     142     42                14559    14559    2226
     Max         144     144     43                14566    14566    2235
     Sum         859     859    253                87375    87375   13377



     bravais-lattice index     =            4
     lattice parameter (alat)  =       8.8439  a.u.
     unit-cell volume          =    2560.0529 (a.u.)^3
     number of atoms/cell      =            2
     number of atomic types    =            1
     number of electrons       =        28.00
     number of Kohn-Sham states=           18
     kinetic-energy cutoff     =      40.0000  Ry
     charge density cutoff     =     160.0000  Ry
     scf convergence threshold =      1.0E-06
     mixing beta               =       0.7000
     number of iterations used =            8  plain     mixing
     Exchange-correlation= SLA  PW   PBE  PBE
                           (   1   4   3   4   0   0   0)

     celldm(1)=   8.843918  celldm(2)=   0.000000  celldm(3)=   4.273504
     celldm(4)=   0.000000  celldm(5)=   0.000000  celldm(6)=   0.000000

     crystal axes: (cart. coord. in units of alat)
               a(1) = (   1.000000   0.000000   0.000000 )  
               a(2) = (  -0.500000   0.866025   0.000000 )  
               a(3) = (   0.000000   0.000000   4.273504 )  

     reciprocal axes: (cart. coord. in units 2 pi/alat)
               b(1) = (  1.000000  0.577350 -0.000000 )  
               b(2) = (  0.000000  1.154701  0.000000 )  
               b(3) = (  0.000000 -0.000000  0.234000 )  


     PseudoPot. # 1 for Sn read from file:
     ../pseudo/Sn_pbe_v1.uspp.F.UPF
     MD5 check sum: 4cf58ce39ec5d5d420df3dd08604eb00
     Pseudo is Ultrasoft + core correction, Zval = 14.0
     Generated by new atomic code, or converted to UPF format
     Using radial grid of  891 points,  6 beta functions with: 
                l(1) =   0
                l(2) =   0
                l(3) =   1
                l(4) =   1
                l(5) =   2
                l(6) =   2
     Q(r) pseudized with  6 coefficients,  rinner =    1.200   1.200   1.200
                                                       1.200   1.200

     atomic species   valence    mass     pseudopotential
        Sn            14.00   118.71000     Sn( 1.00)

     24 Sym. Ops., with inversion, found



   Cartesian axes

     site n.     atom                  positions (alat units)
         1           Sn  tau(   1) = (   0.0000000   0.5773503   2.1367521  )
         2           Sn  tau(   2) = (   0.5000000   0.2886751   2.1367521  )

     number of k points=    14  Methfessel-Paxton smearing, width (Ry)=  0.0200
                       cart. coord. in units 2pi/alat
        k(    1) = (   0.0000000   0.0000000   0.0000000), wk =   0.0200000
        k(    2) = (   0.0000000   0.1154701   0.0000000), wk =   0.1200000
        k(    3) = (   0.0000000   0.2309401   0.0000000), wk =   0.1200000
        k(    4) = (   0.0000000   0.3464102   0.0000000), wk =   0.1200000
        k(    5) = (   0.0000000   0.4618802   0.0000000), wk =   0.1200000
        k(    6) = (   0.0000000  -0.5773503   0.0000000), wk =   0.0600000
        k(    7) = (   0.1000000   0.1732051   0.0000000), wk =   0.1200000
        k(    8) = (   0.1000000   0.2886751   0.0000000), wk =   0.2400000
        k(    9) = (   0.1000000   0.4041452   0.0000000), wk =   0.2400000
        k(   10) = (   0.1000000   0.5196152   0.0000000), wk =   0.2400000
        k(   11) = (   0.2000000   0.3464102   0.0000000), wk =   0.1200000
        k(   12) = (   0.2000000   0.4618802   0.0000000), wk =   0.2400000
        k(   13) = (   0.2000000   0.5773503   0.0000000), wk =   0.1200000
        k(   14) = (   0.3000000   0.5196152   0.0000000), wk =   0.1200000

     Dense  grid:    87375 G-vectors     FFT dimensions: (  36,  36, 160)

     Estimated max dynamical RAM per process >      59.74 MB

     Estimated total dynamical RAM >     358.46 MB

     Check: negative core charge=   -0.000001

     Initial potential from superposition of free atoms

     starting charge   25.99991, renormalised to   28.00000

     negative rho (up, down):  1.678E-02 0.000E+00
     Starting wfcs are   18 randomized atomic wfcs

     total cpu time spent up to now is        1.0 secs

     Self-consistent Calculation

     iteration #  1     ecut=    40.00 Ry     beta= 0.70
     Davidson diagonalization with overlap
     ethr =  1.00E-02,  avg # of iterations =  7.4

     negative rho (up, down):  1.104E-02 0.000E+00

     total cpu time spent up to now is        4.1 secs

     total energy              =    -325.42587390 Ry
     estimated scf accuracy    <       2.49926442 Ry

     iteration #  2     ecut=    40.00 Ry     beta= 0.70
     Davidson diagonalization with overlap
     ethr =  8.93E-03,  avg # of iterations =  2.3

     negative rho (up, down):  1.290E-02 0.000E+00

     total cpu time spent up to now is        6.6 secs

     total energy              =    -326.33412972 Ry
     estimated scf accuracy    <       0.37079400 Ry

     iteration #  3     ecut=    40.00 Ry     beta= 0.70
     Davidson diagonalization with overlap
     ethr =  1.32E-03,  avg # of iterations =  2.4

     negative rho (up, down):  1.428E-02 0.000E+00

     total cpu time spent up to now is        9.1 secs

     total energy              =    -326.39010615 Ry
     estimated scf accuracy    <       0.00567831 Ry

     iteration #  4     ecut=    40.00 Ry     beta= 0.70
     Davidson diagonalization with overlap
     ethr =  2.03E-05,  avg # of iterations =  9.9

     negative rho (up, down):  1.415E-02 0.000E+00

     total cpu time spent up to now is       12.5 secs

     total energy              =    -326.39208962 Ry
     estimated scf accuracy    <       0.00099074 Ry

     iteration #  5     ecut=    40.00 Ry     beta= 0.70
     Davidson diagonalization with overlap
     ethr =  3.54E-06,  avg # of iterations =  5.4

     negative rho (up, down):  1.417E-02 0.000E+00

     total cpu time spent up to now is       15.4 secs

     total energy              =    -326.39237472 Ry
     estimated scf accuracy    <       0.00004245 Ry

     iteration #  6     ecut=    40.00 Ry     beta= 0.70
     Davidson diagonalization with overlap
     ethr =  1.52E-07,  avg # of iterations =  2.0

     negative rho (up, down):  1.418E-02 0.000E+00

     total cpu time spent up to now is       17.7 secs

     End of self-consistent calculation

          k = 0.0000 0.0000 0.0000 ( 10895 PWs)   bands (ev):

   -24.1400 -24.1259 -24.1259 -24.0285 -24.0285 -23.8624 -23.8624 -23.7965
   -23.7965 -23.7320 -12.2404  -4.3235  -3.7100  -3.3756  -3.3756   0.6494
     0.6494   0.6867

          k = 0.0000 0.1155 0.0000 ( 10877 PWs)   bands (ev):

   -24.1543 -24.1498 -24.1332 -24.0306 -24.0246 -23.8405 -23.8359 -23.8010
   -23.7944 -23.7308 -12.1551  -4.9663  -4.2351  -3.5543  -2.2495   0.5833
     0.8247   1.0005

          k = 0.0000 0.2309 0.0000 ( 10895 PWs)   bands (ev):

   -24.2019 -24.1987 -24.1292 -24.0360 -24.0136 -23.8135 -23.8014 -23.7890
   -23.7804 -23.7220 -11.9017  -6.3274  -3.9746  -3.9389  -1.5716   0.9602
     1.0757   1.2097

          k = 0.0000 0.3464 0.0000 ( 10922 PWs)   bands (ev):

   -24.2491 -24.2451 -24.1228 -24.0425 -23.9978 -23.8311 -23.7826 -23.7819
   -23.7257 -23.6955 -11.4923  -7.5648  -4.3160  -3.5602  -1.5723   0.0987
     1.4995   2.1623

          k = 0.0000 0.4619 0.0000 ( 10942 PWs)   bands (ev):

   -24.2815 -24.2764 -24.1173 -24.0474 -23.9822 -23.8483 -23.7791 -23.7776
   -23.6876 -23.6671 -10.9801  -8.5870  -4.5728  -3.0528  -1.7116  -0.7844
     2.1330   2.7584

          k = 0.0000-0.5774 0.0000 ( 10920 PWs)   bands (ev):

   -24.2929 -24.2874 -24.1152 -24.0493 -23.9750 -23.8560 -23.7794 -23.7758
   -23.6740 -23.6560 -10.6516  -9.0875  -4.6628  -2.7352  -1.7714  -1.2324
     2.8353   3.0250

          k = 0.1000 0.1732 0.0000 ( 10879 PWs)   bands (ev):

   -24.2010 -24.1669 -24.1360 -24.0347 -24.0167 -23.8098 -23.8097 -23.7984
   -23.7903 -23.7249 -11.9856  -5.9546  -4.0605  -3.9138  -1.4857   0.5551
     1.0067   1.3383

          k = 0.1000 0.2887 0.0000 ( 10915 PWs)   bands (ev):

   -24.2566 -24.1997 -24.1320 -24.0414 -24.0020 -23.8261 -23.7838 -23.7801
   -23.7590 -23.6972 -11.6524  -7.1084  -4.4024  -3.7211  -1.0259   0.4706
     1.0440   1.3874

          k = 0.1000 0.4041 0.0000 ( 10954 PWs)   bands (ev):

   -24.3011 -24.2296 -24.1261 -24.0478 -23.9840 -23.8457 -23.7775 -23.7748
   -23.7243 -23.6566 -11.1789  -8.1837  -4.7853  -3.2473  -1.0731  -0.4318
     1.8520   2.3545

          k = 0.1000 0.5196 0.0000 ( 10933 PWs)   bands (ev):

   -24.3252 -24.2464 -24.1221 -24.0515 -23.9697 -23.8610 -23.7759 -23.7738
   -23.7041 -23.6311 -10.6828  -8.9936  -4.9879  -2.7625  -1.1686  -1.1503
     2.5699   2.8870

          k = 0.2000 0.3464 0.0000 ( 10953 PWs)   bands (ev):

   -24.3088 -24.2024 -24.1375 -24.0488 -23.9829 -23.8465 -23.7766 -23.7625
   -23.7524 -23.6502 -11.2481  -7.9919  -5.0057  -3.3152  -0.2687  -0.1561
     1.1010   1.8032

          k = 0.2000 0.4619 0.0000 ( 10975 PWs)   bands (ev):

   -24.3443 -24.2074 -24.1390 -24.0548 -23.9609 -23.8694 -23.7709 -23.7654
   -23.7359 -23.6128 -10.7286  -8.8349  -5.4165  -2.8032  -1.0123   0.0950
     2.0757   2.4110

          k = 0.2000 0.5774 0.0000 ( 10963 PWs)   bands (ev):

   -24.3568 -24.2099 -24.1388 -24.0571 -23.9487 -23.8820 -23.7688 -23.7674
   -23.7294 -23.5990 -10.3589  -9.3188  -5.5570  -2.4464  -1.4522   0.0857
     2.3486   2.9664

          k = 0.3000 0.5196 0.0000 ( 10971 PWs)   bands (ev):

   -24.3679 -24.1848 -24.1566 -24.0594 -23.9333 -23.8974 -23.7666 -23.7576
   -23.7458 -23.5873 -10.1843  -9.4738  -5.7942  -2.2750  -1.6005   1.2942
     2.0589   2.1074

     the Fermi energy is    -2.2841 ev

!    total energy              =    -326.39238151 Ry
     estimated scf accuracy    <       0.00000044 Ry
     smearing contrib. (-TS)   =      -0.00032706 Ry
     internal energy E=F+TS    =    -326.39205445 Ry

     The total energy is F=E-TS. E is the sum of the following terms:
     one-electron contribution =    -882.83947592 Ry
     hartree contribution      =     448.54640513 Ry
     xc contribution           =     -95.07728741 Ry
     ewald contribution        =     202.97830376 Ry

     convergence has been achieved in   6 iterations

     Writing output data file ../tmp/stanene.save/

     init_run     :      0.85s CPU      0.89s WALL (       1 calls)
     electrons    :     16.01s CPU     16.69s WALL (       1 calls)

     Called by init_run:
     wfcinit      :      0.51s CPU      0.54s WALL (       1 calls)
     potinit      :      0.05s CPU      0.05s WALL (       1 calls)
     hinit0       :      0.12s CPU      0.12s WALL (       1 calls)

     Called by electrons:
     c_bands      :     13.88s CPU     14.34s WALL (       6 calls)
     sum_band     :      1.69s CPU      1.86s WALL (       6 calls)
     v_of_rho     :      0.14s CPU      0.15s WALL (       7 calls)
     newd         :      0.36s CPU      0.40s WALL (       7 calls)
     mix_rho      :      0.03s CPU      0.03s WALL (       6 calls)

     Called by c_bands:
     init_us_2    :      0.11s CPU      0.11s WALL (     182 calls)
     cegterg      :     13.50s CPU     13.96s WALL (      84 calls)

     Called by *egterg:
     cdiaghg      :      0.38s CPU      0.38s WALL (     493 calls)
     h_psi        :      8.63s CPU      9.09s WALL (     507 calls)
     s_psi        :      0.53s CPU      0.54s WALL (     507 calls)
     g_psi        :      0.05s CPU      0.05s WALL (     409 calls)

     Called by h_psi:
     h_psi:calbec :      0.93s CPU      0.98s WALL (     507 calls)
     vloc_psi     :      7.13s CPU      7.52s WALL (     507 calls)
     add_vuspsi   :      0.55s CPU      0.57s WALL (     507 calls)

     General routines
     calbec       :      1.19s CPU      1.26s WALL (     591 calls)
     fft          :      0.10s CPU      0.11s WALL (      77 calls)
     ffts         :      0.00s CPU      0.00s WALL (       6 calls)
     fftw         :      7.62s CPU      8.03s WALL (   11372 calls)

     Parallel routines
     fft_scatt_xy :      0.47s CPU      0.51s WALL (   11455 calls)
     fft_scatt_yz :      4.54s CPU      4.74s WALL (   11455 calls)

     PWSCF        :     17.00s CPU     17.79s WALL


   This run was terminated on:  23: 3:31  20Jan2024            

=------------------------------------------------------------------------------=
   JOB DONE.
=------------------------------------------------------------------------------=
