
     Program BANDS v.7.2 starts on 23Mar2024 at 22:30:22 

     This program is part of the open-source Quantum ESPRESSO suite
     for quantum simulation of materials; please cite
         "P. Giannozzi et al., J. Phys.:Condens. Matter 21 395502 (2009);
         "P. Giannozzi et al., J. Phys.:Condens. Matter 29 465901 (2017);
         "P. Giannozzi et al., J. Chem. Phys. 152 154105 (2020);
          URL http://www.quantum-espresso.org", 
     in publications or presentations arising from this work. More details at
     http://www.quantum-espresso.org/quote

     Parallel version (MPI), running on     6 processors

     MPI processes distributed on     1 nodes
     R & G space division:  proc/nbgrp/npool/nimage =       6
     4219 MiB available memory on the printing compute node when the environment starts


     Reading xml data from directory:

     ../tmp/stanene.save/
     file Sn.rel-pbesol-dn-kjpaw_psl.0.2.UPF: wavefunction(s)  5P 5P 4D 4D renormalized

     IMPORTANT: XC functional enforced from input :
     Exchange-correlation= PBESOL
                           (   1   4  10   8   0   0   0)
     Any further DFT definition will be discarded
     Please, verify this is what you really want


     Parallelization info
     --------------------
     sticks:   dense  smooth     PW     G-vecs:    dense   smooth      PW
     Min         214     214     60                26818    26818    3960
     Max         215     215     61                26841    26841    3973
     Sum        1285    1285    361               160939   160939   23787

     Using Slab Decomposition


     Check: negative core charge=   -0.000016

     negative rho (up, down):  1.711E-03 0.000E+00
     Reading collected, re-writing distributed wavefunctions
     high-symmetry point:  0.0000 0.0000 0.0000   x coordinate   0.0000
     high-symmetry point:  0.0000 0.4619 0.0000   x coordinate   0.4619
     high-symmetry point:  0.0000-0.5774 0.0000   x coordinate   0.4619
     high-symmetry point:  0.1000 0.1732 0.0000   x coordinate   0.4619
     high-symmetry point:  0.1000 0.5196 0.0000   x coordinate   0.8083
     high-symmetry point:  0.2000 0.3464 0.0000   x coordinate   1.0083
     high-symmetry point:  0.2000 0.5774 0.0000   x coordinate   1.2392
     high-symmetry point:  0.3000 0.5196 0.0000   x coordinate   1.3547

     Plottable bands (eV) written to file stanene.bands.gnu
     Bands written to file stanene.bands

 **************************************************************************

                    xk=(   0.00000,   0.00000,   0.00000  )

     double point group C_3v (3m)  
     there are  6 classes and  3 irreducible representations
     the character table:

       E     -E    2C3   -2C3  3s_v  -3s_v
                                          
G_4    2.00 -2.00  1.00 -1.00  0.00  0.00
G_5    1.00 -1.00 -1.00  1.00  0.00  0.00
G_6    1.00 -1.00 -1.00  1.00  0.00  0.00

     imaginary part

       E     -E    2C3   -2C3  3s_v  -3s_v
                                          
G_4    0.00  0.00  0.00  0.00  0.00  0.00
G_5    0.00  0.00  0.00  0.00  1.00 -1.00
G_6    0.00  0.00  0.00  0.00 -1.00  1.00

     the symmetry operations in each class and the name of the first element:

     E             1
                                                                 
     -E           -1
                                                                 
     2C3           2    3
                                                                 
     -2C3         -2   -3
                                                                 
     3s_v          5    6   -4
                                                                 
     -3s_v         4   -5   -6
                                                                 

     Band symmetry, C_3v (3m)   double point group:

     e(  1 -  2) =    -23.90568  eV     2   --> G_4   L_6      
     e(  3 -  4) =    -23.90134  eV     2   --> G_5   L_4      
     e(  3 -  4) =    -23.90134  eV     2   --> G_6   L_5      
     e(  5 -  6) =    -23.87183  eV     2   --> G_4   L_6      
     e(  7 -  8) =    -23.79436  eV     2   --> G_5   L_4      
     e(  7 -  8) =    -23.79436  eV     2   --> G_6   L_5      
     e(  9 - 10) =    -22.95733  eV     2   --> G_4   L_6      
     e( 11 - 12) =    -22.86571  eV     2   --> G_4   L_6      
     e( 13 - 14) =    -22.80778  eV     2   --> G_5   L_4      
     e( 13 - 14) =    -22.80778  eV     2   --> G_6   L_5      
     e( 15 - 16) =    -22.78253  eV     2   --> G_5   L_4      
     e( 15 - 16) =    -22.78253  eV     2   --> G_6   L_5      
     e( 17 - 18) =    -22.74489  eV     2   --> G_4   L_6      
     e( 19 - 20) =    -22.65890  eV     2   --> G_4   L_6      
     e( 21 - 22) =    -11.36989  eV     2   --> G_4   L_6      
     e( 23 - 24) =     -5.25517  eV     2   --> G_4   L_6      
     e( 25 - 26) =     -2.64013  eV     2   --> G_4   L_6      
     e( 27 - 28) =     -2.17247  eV     2   --> G_5   L_4      
     e( 27 - 28) =     -2.17247  eV     2   --> G_6   L_5      

 **************************************************************************

 **************************************************************************

                    xk=(   0.00000,   0.11547,   0.00000  )

     double point group C_s (m)    
     there are  4 classes and  2 irreducible representations
     the character table:

       E     -E    s     -s   
                              
G_3    1.00 -1.00  0.00  0.00
G_4    1.00 -1.00  0.00  0.00

     imaginary part

       E     -E    s     -s   
                              
G_3    0.00  0.00  1.00 -1.00
G_4    0.00  0.00 -1.00  1.00

     the symmetry operations in each class and the name of the first element:

     E             1
                                                                 
     -E           -1
                                                                 
     s             2
                                                                 
     -s           -2
                                                                 

     Band symmetry, C_s (m)     double point group:

     e(  1 -  2) =    -23.90624  eV     2   --> G_3            
     e(  1 -  2) =    -23.90624  eV     2   --> G_4            
     e(  3 -  4) =    -23.90233  eV     2   --> G_3            
     e(  3 -  4) =    -23.90233  eV     2   --> G_4            
     e(  5 -  5) =    -23.86949  eV     1   --> G_3            
     e(  6 -  6) =    -23.86936  eV     1   --> G_4            
     e(  7 -  8) =    -23.79589  eV     2   --> G_3            
     e(  7 -  8) =    -23.79589  eV     2   --> G_4            
     e(  9 -  9) =    -22.95356  eV     1   --> G_3            
     e( 10 - 10) =    -22.95345  eV     1   --> G_4            
     e( 11 - 11) =    -22.86828  eV     1   --> G_4            
     e( 12 - 12) =    -22.86802  eV     1   --> G_3            
     e( 13 - 13) =    -22.80486  eV     1   --> G_4            
     e( 14 - 14) =    -22.80452  eV     1   --> G_3            
     e( 15 - 15) =    -22.79691  eV     1   --> G_3            
     e( 16 - 16) =    -22.79652  eV     1   --> G_4            
     e( 17 - 17) =    -22.73296  eV     1   --> G_3            
     e( 18 - 18) =    -22.73282  eV     1   --> G_4            
     e( 19 - 20) =    -22.65936  eV     2   --> G_3            
     e( 19 - 20) =    -22.65936  eV     2   --> G_4            
     e( 21 - 22) =    -11.28548  eV     2   --> G_3            
     e( 21 - 22) =    -11.28548  eV     2   --> G_4            
     e( 23 - 24) =     -5.41031  eV     2   --> G_3            
     e( 23 - 24) =     -5.41031  eV     2   --> G_4            
     e( 25 - 26) =     -3.25426  eV     2   --> G_3            
     e( 25 - 26) =     -3.25426  eV     2   --> G_4            
     e( 27 - 28) =     -2.55892  eV     2   --> G_3            
     e( 27 - 28) =     -2.55892  eV     2   --> G_4            

 **************************************************************************

 **************************************************************************

                    xk=(   0.00000,   0.23094,   0.00000  )

     Band symmetry, C_s (m)     double point group:

     e(  1 -  1) =    -23.90867  eV     1   --> G_3            
     e(  2 -  2) =    -23.90850  eV     1   --> G_4            
     e(  3 -  3) =    -23.90303  eV     1   --> G_4            
     e(  4 -  4) =    -23.90265  eV     1   --> G_3            
     e(  5 -  5) =    -23.86396  eV     1   --> G_3            
     e(  6 -  6) =    -23.86370  eV     1   --> G_4            
     e(  7 -  8) =    -23.80021  eV     2   --> G_3            
     e(  7 -  8) =    -23.80021  eV     2   --> G_4            
     e(  9 -  9) =    -22.94339  eV     1   --> G_3            
     e( 10 - 10) =    -22.94313  eV     1   --> G_4            
     e( 11 - 11) =    -22.87333  eV     1   --> G_4            
     e( 12 - 12) =    -22.87287  eV     1   --> G_3            
     e( 13 - 13) =    -22.82210  eV     1   --> G_4            
     e( 14 - 14) =    -22.82170  eV     1   --> G_3            
     e( 15 - 15) =    -22.79655  eV     1   --> G_3            
     e( 16 - 16) =    -22.79607  eV     1   --> G_4            
     e( 17 - 17) =    -22.71541  eV     1   --> G_3            
     e( 18 - 18) =    -22.71518  eV     1   --> G_4            
     e( 19 - 19) =    -22.66063  eV     1   --> G_4            
     e( 20 - 20) =    -22.66051  eV     1   --> G_3            
     e( 21 - 22) =    -11.03549  eV     2   --> G_3            
     e( 21 - 22) =    -11.03549  eV     2   --> G_4            
     e( 23 - 24) =     -6.02139  eV     2   --> G_3            
     e( 23 - 24) =     -6.02139  eV     2   --> G_4            
     e( 25 - 26) =     -3.66739  eV     2   --> G_3            
     e( 25 - 26) =     -3.66739  eV     2   --> G_4            
     e( 27 - 28) =     -2.93654  eV     2   --> G_3            
     e( 27 - 28) =     -2.93654  eV     2   --> G_4            

 **************************************************************************

 **************************************************************************

                    xk=(   0.00000,   0.34641,   0.00000  )

     Band symmetry, C_s (m)     double point group:

     e(  1 -  1) =    -23.91174  eV     1   --> G_3            
     e(  2 -  2) =    -23.91155  eV     1   --> G_4            
     e(  3 -  3) =    -23.90227  eV     1   --> G_4            
     e(  4 -  4) =    -23.90182  eV     1   --> G_3            
     e(  5 -  5) =    -23.85758  eV     1   --> G_3            
     e(  6 -  6) =    -23.85723  eV     1   --> G_4            
     e(  7 -  8) =    -23.80640  eV     2   --> G_3            
     e(  7 -  8) =    -23.80640  eV     2   --> G_4            
     e(  9 -  9) =    -22.93029  eV     1   --> G_3            
     e( 10 - 10) =    -22.92987  eV     1   --> G_4            
     e( 11 - 11) =    -22.87733  eV     1   --> G_4            
     e( 12 - 12) =    -22.87675  eV     1   --> G_3            
     e( 13 - 13) =    -22.84457  eV     1   --> G_4            
     e( 14 - 14) =    -22.84425  eV     1   --> G_3            
     e( 15 - 15) =    -22.78955  eV     1   --> G_3            
     e( 16 - 16) =    -22.78918  eV     1   --> G_4            
     e( 17 - 17) =    -22.70108  eV     1   --> G_3            
     e( 18 - 18) =    -22.70079  eV     1   --> G_4            
     e( 19 - 19) =    -22.66269  eV     1   --> G_4            
     e( 20 - 20) =    -22.66249  eV     1   --> G_3            
     e( 21 - 22) =    -10.63430  eV     2   --> G_3            
     e( 21 - 22) =    -10.63430  eV     2   --> G_4            
     e( 23 - 24) =     -6.95598  eV     2   --> G_3            
     e( 23 - 24) =     -6.95598  eV     2   --> G_4            
     e( 25 - 26) =     -3.57629  eV     2   --> G_3            
     e( 25 - 26) =     -3.57629  eV     2   --> G_4            
     e( 27 - 28) =     -3.28278  eV     2   --> G_3            
     e( 27 - 28) =     -3.28278  eV     2   --> G_4            

 **************************************************************************

 **************************************************************************

                    xk=(   0.00000,   0.46188,   0.00000  )

     Band symmetry, C_s (m)     double point group:

     e(  1 -  1) =    -23.91389  eV     1   --> G_3            
     e(  2 -  2) =    -23.91378  eV     1   --> G_4            
     e(  3 -  3) =    -23.90104  eV     1   --> G_4            
     e(  4 -  4) =    -23.90075  eV     1   --> G_3            
     e(  5 -  5) =    -23.85205  eV     1   --> G_3            
     e(  6 -  6) =    -23.85176  eV     1   --> G_4            
     e(  7 -  7) =    -23.81249  eV     1   --> G_4            
     e(  8 -  8) =    -23.81238  eV     1   --> G_3            
     e(  9 -  9) =    -22.91885  eV     1   --> G_3            
     e( 10 - 10) =    -22.91842  eV     1   --> G_4            
     e( 11 - 11) =    -22.87969  eV     1   --> G_4            
     e( 12 - 12) =    -22.87922  eV     1   --> G_3            
     e( 13 - 13) =    -22.85995  eV     1   --> G_4            
     e( 14 - 14) =    -22.85971  eV     1   --> G_3            
     e( 15 - 15) =    -22.78574  eV     1   --> G_3            
     e( 16 - 16) =    -22.78551  eV     1   --> G_4            
     e( 17 - 17) =    -22.69077  eV     1   --> G_3            
     e( 18 - 18) =    -22.69051  eV     1   --> G_4            
     e( 19 - 19) =    -22.66548  eV     1   --> G_4            
     e( 20 - 20) =    -22.66528  eV     1   --> G_3            
     e( 21 - 22) =    -10.13796  eV     2   --> G_3            
     e( 21 - 22) =    -10.13796  eV     2   --> G_4            
     e( 23 - 24) =     -7.85096  eV     2   --> G_3            
     e( 23 - 24) =     -7.85096  eV     2   --> G_4            
     e( 25 - 26) =     -3.55532  eV     2   --> G_3            
     e( 25 - 26) =     -3.55532  eV     2   --> G_4            
     e( 27 - 28) =     -3.24708  eV     2   --> G_3            
     e( 27 - 28) =     -3.24708  eV     2   --> G_4            

 **************************************************************************

 **************************************************************************

                    xk=(   0.00000,  -0.57735,   0.00000  )

     Band symmetry, C_s (m)     double point group:

     e(  1 -  2) =    -23.91461  eV     2   --> G_3            
     e(  1 -  2) =    -23.91461  eV     2   --> G_4            
     e(  3 -  4) =    -23.90036  eV     2   --> G_3            
     e(  3 -  4) =    -23.90036  eV     2   --> G_4            
     e(  5 -  6) =    -23.84952  eV     2   --> G_3            
     e(  5 -  6) =    -23.84952  eV     2   --> G_4            
     e(  7 -  8) =    -23.81520  eV     2   --> G_3            
     e(  7 -  8) =    -23.81520  eV     2   --> G_4            
     e(  9 - 10) =    -22.91373  eV     2   --> G_3            
     e(  9 - 10) =    -22.91373  eV     2   --> G_4            
     e( 11 - 12) =    -22.88133  eV     2   --> G_3            
     e( 11 - 12) =    -22.88133  eV     2   --> G_4            
     e( 13 - 14) =    -22.86448  eV     2   --> G_3            
     e( 13 - 14) =    -22.86448  eV     2   --> G_4            
     e( 15 - 16) =    -22.78470  eV     2   --> G_3            
     e( 15 - 16) =    -22.78470  eV     2   --> G_4            
     e( 17 - 18) =    -22.68625  eV     2   --> G_3            
     e( 17 - 18) =    -22.68625  eV     2   --> G_4            
     e( 19 - 20) =    -22.66721  eV     2   --> G_3            
     e( 19 - 20) =    -22.66721  eV     2   --> G_4            
     e( 21 - 22) =     -9.82508  eV     2   --> G_3            
     e( 21 - 22) =     -9.82508  eV     2   --> G_4            
     e( 23 - 24) =     -8.30574  eV     2   --> G_3            
     e( 23 - 24) =     -8.30574  eV     2   --> G_4            
     e( 25 - 26) =     -3.63192  eV     2   --> G_3            
     e( 25 - 26) =     -3.63192  eV     2   --> G_4            
     e( 27 - 28) =     -3.07457  eV     2   --> G_3            
     e( 27 - 28) =     -3.07457  eV     2   --> G_4            

 **************************************************************************

 **************************************************************************

                    xk=(   0.10000,   0.17321,   0.00000  )

     double point group C_1 (1)    
     there are  2 classes and  1 irreducible representations
     the character table:

       E     -E   
                  
G_2    1.00 -1.00

     the symmetry operations in each class and the name of the first element:

     E             1
                                                                 
     -E           -1
                                                                 

     Band symmetry, C_1 (1)     double point group:

     e(  1 -  1) =    -23.90818  eV     1   --> G_2            
     e(  2 -  2) =    -23.90765  eV     1   --> G_2            
     e(  3 -  3) =    -23.90305  eV     1   --> G_2            
     e(  4 -  4) =    -23.90234  eV     1   --> G_2            
     e(  5 -  5) =    -23.86571  eV     1   --> G_2            
     e(  6 -  6) =    -23.86543  eV     1   --> G_2            
     e(  7 -  8) =    -23.79879  eV     2   -->   2 G_2            
     e(  9 -  9) =    -22.94660  eV     1   --> G_2            
     e( 10 - 10) =    -22.94638  eV     1   --> G_2            
     e( 11 - 11) =    -22.87202  eV     1   --> G_2            
     e( 12 - 12) =    -22.87158  eV     1   --> G_2            
     e( 13 - 13) =    -22.81550  eV     1   --> G_2            
     e( 14 - 14) =    -22.81473  eV     1   --> G_2            
     e( 15 - 15) =    -22.79883  eV     1   --> G_2            
     e( 16 - 16) =    -22.79802  eV     1   --> G_2            
     e( 17 - 17) =    -22.72033  eV     1   --> G_2            
     e( 18 - 18) =    -22.72010  eV     1   --> G_2            
     e( 19 - 19) =    -22.65996  eV     1   --> G_2            
     e( 20 - 20) =    -22.65985  eV     1   --> G_2            
     e( 21 - 22) =    -11.11812  eV     2   -->   2 G_2            
     e( 23 - 24) =     -5.80368  eV     2   -->   2 G_2            
     e( 25 - 26) =     -3.59704  eV     2   -->   2 G_2            
     e( 27 - 28) =     -2.92513  eV     2   -->   2 G_2            

 **************************************************************************

 **************************************************************************

                    xk=(   0.10000,   0.28868,   0.00000  )

     Band symmetry, C_1 (1)     double point group:

     e(  1 -  1) =    -23.91142  eV     1   --> G_2            
     e(  2 -  2) =    -23.91075  eV     1   --> G_2            
     e(  3 -  3) =    -23.90225  eV     1   --> G_2            
     e(  4 -  4) =    -23.90126  eV     1   --> G_2            
     e(  5 -  5) =    -23.86045  eV     1   --> G_2            
     e(  6 -  6) =    -23.85994  eV     1   --> G_2            
     e(  7 -  7) =    -23.80380  eV     1   --> G_2            
     e(  8 -  8) =    -23.80358  eV     1   --> G_2            
     e(  9 -  9) =    -22.93515  eV     1   --> G_2            
     e( 10 - 10) =    -22.93477  eV     1   --> G_2            
     e( 11 - 11) =    -22.87631  eV     1   --> G_2            
     e( 12 - 12) =    -22.87569  eV     1   --> G_2            
     e( 13 - 13) =    -22.83643  eV     1   --> G_2            
     e( 14 - 14) =    -22.83584  eV     1   --> G_2            
     e( 15 - 15) =    -22.79142  eV     1   --> G_2            
     e( 16 - 16) =    -22.79087  eV     1   --> G_2            
     e( 17 - 17) =    -22.70884  eV     1   --> G_2            
     e( 18 - 18) =    -22.70851  eV     1   --> G_2            
     e( 19 - 19) =    -22.65972  eV     1   --> G_2            
     e( 20 - 20) =    -22.65949  eV     1   --> G_2            
     e( 21 - 22) =    -10.79061  eV     2   -->   2 G_2            
     e( 23 - 24) =     -6.59004  eV     2   -->   2 G_2            
     e( 25 - 26) =     -3.63484  eV     2   -->   2 G_2            
     e( 27 - 28) =     -3.36833  eV     2   -->   2 G_2            

 **************************************************************************

 **************************************************************************

                    xk=(   0.10000,   0.40415,   0.00000  )

     Band symmetry, C_1 (1)     double point group:

     e(  1 -  1) =    -23.91425  eV     1   --> G_2            
     e(  2 -  2) =    -23.91362  eV     1   --> G_2            
     e(  3 -  3) =    -23.90058  eV     1   --> G_2            
     e(  4 -  4) =    -23.89954  eV     1   --> G_2            
     e(  5 -  5) =    -23.85572  eV     1   --> G_2            
     e(  6 -  6) =    -23.85505  eV     1   --> G_2            
     e(  7 -  7) =    -23.80931  eV     1   --> G_2            
     e(  8 -  8) =    -23.80891  eV     1   --> G_2            
     e(  9 -  9) =    -22.92370  eV     1   --> G_2            
     e( 10 - 10) =    -22.92322  eV     1   --> G_2            
     e( 11 - 11) =    -22.87841  eV     1   --> G_2            
     e( 12 - 12) =    -22.87777  eV     1   --> G_2            
     e( 13 - 13) =    -22.85389  eV     1   --> G_2            
     e( 14 - 14) =    -22.85334  eV     1   --> G_2            
     e( 15 - 15) =    -22.78556  eV     1   --> G_2            
     e( 16 - 16) =    -22.78518  eV     1   --> G_2            
     e( 17 - 17) =    -22.70339  eV     1   --> G_2            
     e( 18 - 18) =    -22.70302  eV     1   --> G_2            
     e( 19 - 19) =    -22.65755  eV     1   --> G_2            
     e( 20 - 20) =    -22.65723  eV     1   --> G_2            
     e( 21 - 22) =    -10.32909  eV     2   -->   2 G_2            
     e( 23 - 24) =     -7.49569  eV     2   -->   2 G_2            
     e( 25 - 26) =     -3.83861  eV     2   -->   2 G_2            
     e( 27 - 28) =     -3.25512  eV     2   -->   2 G_2            

 **************************************************************************

 **************************************************************************

                    xk=(   0.10000,   0.51962,   0.00000  )

     Band symmetry, C_1 (1)     double point group:

     e(  1 -  1) =    -23.91583  eV     1   --> G_2            
     e(  2 -  2) =    -23.91523  eV     1   --> G_2            
     e(  3 -  3) =    -23.89924  eV     1   --> G_2            
     e(  4 -  4) =    -23.89822  eV     1   --> G_2            
     e(  5 -  5) =    -23.85287  eV     1   --> G_2            
     e(  6 -  6) =    -23.85217  eV     1   --> G_2            
     e(  7 -  7) =    -23.81305  eV     1   --> G_2            
     e(  8 -  8) =    -23.81254  eV     1   --> G_2            
     e(  9 -  9) =    -22.91672  eV     1   --> G_2            
     e( 10 - 10) =    -22.91640  eV     1   --> G_2            
     e( 11 - 11) =    -22.87859  eV     1   --> G_2            
     e( 12 - 12) =    -22.87828  eV     1   --> G_2            
     e( 13 - 13) =    -22.86327  eV     1   --> G_2            
     e( 14 - 14) =    -22.86291  eV     1   --> G_2            
     e( 15 - 15) =    -22.78282  eV     1   --> G_2            
     e( 16 - 16) =    -22.78263  eV     1   --> G_2            
     e( 17 - 17) =    -22.70208  eV     1   --> G_2            
     e( 18 - 18) =    -22.70171  eV     1   --> G_2            
     e( 19 - 19) =    -22.65529  eV     1   --> G_2            
     e( 20 - 20) =    -22.65493  eV     1   --> G_2            
     e( 21 - 22) =     -9.85236  eV     2   -->   2 G_2            
     e( 23 - 24) =     -8.22573  eV     2   -->   2 G_2            
     e( 25 - 26) =     -4.02480  eV     2   -->   2 G_2            
     e( 27 - 28) =     -2.92747  eV     2   -->   2 G_2            

 **************************************************************************

 **************************************************************************

                    xk=(   0.20000,   0.34641,   0.00000  )

     Band symmetry, C_1 (1)     double point group:

     e(  1 -  1) =    -23.91473  eV     1   --> G_2            
     e(  2 -  2) =    -23.91393  eV     1   --> G_2            
     e(  3 -  3) =    -23.89977  eV     1   --> G_2            
     e(  4 -  4) =    -23.89840  eV     1   --> G_2            
     e(  5 -  5) =    -23.85794  eV     1   --> G_2            
     e(  6 -  6) =    -23.85705  eV     1   --> G_2            
     e(  7 -  7) =    -23.80758  eV     1   --> G_2            
     e(  8 -  8) =    -23.80707  eV     1   --> G_2            
     e(  9 -  9) =    -22.92592  eV     1   --> G_2            
     e( 10 - 10) =    -22.92543  eV     1   --> G_2            
     e( 11 - 11) =    -22.87805  eV     1   --> G_2            
     e( 12 - 12) =    -22.87732  eV     1   --> G_2            
     e( 13 - 13) =    -22.85037  eV     1   --> G_2            
     e( 14 - 14) =    -22.84963  eV     1   --> G_2            
     e( 15 - 15) =    -22.78478  eV     1   --> G_2            
     e( 16 - 16) =    -22.78427  eV     1   --> G_2            
     e( 17 - 17) =    -22.71123  eV     1   --> G_2            
     e( 18 - 18) =    -22.71082  eV     1   --> G_2            
     e( 19 - 19) =    -22.65303  eV     1   --> G_2            
     e( 20 - 20) =    -22.65269  eV     1   --> G_2            
     e( 21 - 22) =    -10.39567  eV     2   -->   2 G_2            
     e( 23 - 24) =     -7.33431  eV     2   -->   2 G_2            
     e( 25 - 26) =     -4.04370  eV     2   -->   2 G_2            
     e( 27 - 28) =     -3.28355  eV     2   -->   2 G_2            

 **************************************************************************

 **************************************************************************

                    xk=(   0.20000,   0.46188,   0.00000  )

     Band symmetry, C_1 (1)     double point group:

     e(  1 -  1) =    -23.91718  eV     1   --> G_2            
     e(  2 -  2) =    -23.91639  eV     1   --> G_2            
     e(  3 -  3) =    -23.89697  eV     1   --> G_2            
     e(  4 -  4) =    -23.89539  eV     1   --> G_2            
     e(  5 -  5) =    -23.85754  eV     1   --> G_2            
     e(  6 -  6) =    -23.85641  eV     1   --> G_2            
     e(  7 -  7) =    -23.80981  eV     1   --> G_2            
     e(  8 -  8) =    -23.80911  eV     1   --> G_2            
     e(  9 -  9) =    -22.92043  eV     1   --> G_2            
     e( 10 - 10) =    -22.92000  eV     1   --> G_2            
     e( 11 - 11) =    -22.87579  eV     1   --> G_2            
     e( 12 - 12) =    -22.87535  eV     1   --> G_2            
     e( 13 - 13) =    -22.86019  eV     1   --> G_2            
     e( 14 - 14) =    -22.85954  eV     1   --> G_2            
     e( 15 - 15) =    -22.77857  eV     1   --> G_2            
     e( 16 - 16) =    -22.77823  eV     1   --> G_2            
     e( 17 - 17) =    -22.71930  eV     1   --> G_2            
     e( 18 - 18) =    -22.71887  eV     1   --> G_2            
     e( 19 - 19) =    -22.64504  eV     1   --> G_2            
     e( 20 - 20) =    -22.64467  eV     1   --> G_2            
     e( 21 - 22) =     -9.89290  eV     2   -->   2 G_2            
     e( 23 - 24) =     -8.09221  eV     2   -->   2 G_2            
     e( 25 - 26) =     -4.45095  eV     2   -->   2 G_2            
     e( 27 - 28) =     -2.87283  eV     2   -->   2 G_2            

 **************************************************************************

 **************************************************************************

                    xk=(   0.20000,   0.57735,   0.00000  )

     Band symmetry, C_1 (1)     double point group:

     e(  1 -  1) =    -23.91807  eV     1   --> G_2            
     e(  2 -  2) =    -23.91729  eV     1   --> G_2            
     e(  3 -  3) =    -23.89570  eV     1   --> G_2            
     e(  4 -  4) =    -23.89402  eV     1   --> G_2            
     e(  5 -  5) =    -23.85785  eV     1   --> G_2            
     e(  6 -  6) =    -23.85666  eV     1   --> G_2            
     e(  7 -  7) =    -23.81042  eV     1   --> G_2            
     e(  8 -  8) =    -23.80966  eV     1   --> G_2            
     e(  9 -  9) =    -22.91909  eV     1   --> G_2            
     e( 10 - 10) =    -22.91876  eV     1   --> G_2            
     e( 11 - 11) =    -22.87306  eV     1   --> G_2            
     e( 12 - 12) =    -22.87283  eV     1   --> G_2            
     e( 13 - 13) =    -22.86427  eV     1   --> G_2            
     e( 14 - 14) =    -22.86383  eV     1   --> G_2            
     e( 15 - 15) =    -22.77572  eV     1   --> G_2            
     e( 16 - 16) =    -22.77554  eV     1   --> G_2            
     e( 17 - 17) =    -22.72367  eV     1   --> G_2            
     e( 18 - 18) =    -22.72322  eV     1   --> G_2            
     e( 19 - 19) =    -22.64175  eV     1   --> G_2            
     e( 20 - 20) =    -22.64137  eV     1   --> G_2            
     e( 21 - 22) =     -9.54023  eV     2   -->   2 G_2            
     e( 23 - 24) =     -8.53770  eV     2   -->   2 G_2            
     e( 25 - 26) =     -4.59130  eV     2   -->   2 G_2            
     e( 27 - 28) =     -2.58192  eV     2   -->   2 G_2            

 **************************************************************************

 **************************************************************************

                    xk=(   0.30000,   0.51962,   0.00000  )

     Band symmetry, C_1 (1)     double point group:

     e(  1 -  1) =    -23.91898  eV     1   --> G_2            
     e(  2 -  2) =    -23.91817  eV     1   --> G_2            
     e(  3 -  3) =    -23.89378  eV     1   --> G_2            
     e(  4 -  4) =    -23.89178  eV     1   --> G_2            
     e(  5 -  5) =    -23.86080  eV     1   --> G_2            
     e(  6 -  6) =    -23.85933  eV     1   --> G_2            
     e(  7 -  7) =    -23.80889  eV     1   --> G_2            
     e(  8 -  8) =    -23.80806  eV     1   --> G_2            
     e(  9 -  9) =    -22.92070  eV     1   --> G_2            
     e( 10 - 10) =    -22.92035  eV     1   --> G_2            
     e( 11 - 11) =    -22.87007  eV     1   --> G_2            
     e( 12 - 12) =    -22.86978  eV     1   --> G_2            
     e( 13 - 13) =    -22.86433  eV     1   --> G_2            
     e( 14 - 14) =    -22.86390  eV     1   --> G_2            
     e( 15 - 15) =    -22.76940  eV     1   --> G_2            
     e( 16 - 16) =    -22.76922  eV     1   --> G_2            
     e( 17 - 17) =    -22.73612  eV     1   --> G_2            
     e( 18 - 18) =    -22.73558  eV     1   --> G_2            
     e( 19 - 19) =    -22.63657  eV     1   --> G_2            
     e( 20 - 20) =    -22.63618  eV     1   --> G_2            
     e( 21 - 22) =     -9.36994  eV     2   -->   2 G_2            
     e( 23 - 24) =     -8.69126  eV     2   -->   2 G_2            
     e( 25 - 26) =     -4.81917  eV     2   -->   2 G_2            
     e( 27 - 28) =     -2.40416  eV     2   -->   2 G_2            

 **************************************************************************

     BANDS        :   1m16.61s CPU   2m26.62s WALL


   This run was terminated on:  22:32:49  23Mar2024            

=------------------------------------------------------------------------------=
   JOB DONE.
=------------------------------------------------------------------------------=
