
     Program PWSCF v.7.2 starts on 15Jun2024 at 22: 2:15 

     This program is part of the open-source Quantum ESPRESSO suite
     for quantum simulation of materials; please cite
         "P. Giannozzi et al., J. Phys.:Condens. Matter 21 395502 (2009);
         "P. Giannozzi et al., J. Phys.:Condens. Matter 29 465901 (2017);
         "P. Giannozzi et al., J. Chem. Phys. 152 154105 (2020);
          URL http://www.quantum-espresso.org", 
     in publications or presentations arising from this work. More details at
     http://www.quantum-espresso.org/quote

     Parallel version (MPI), running on     6 processors

     MPI processes distributed on     1 nodes
     5384 MiB available memory on the printing compute node when the environment starts

     Waiting for input...
     Reading input from standard input

     Current dimensions of program PWSCF are:
     Max number of different atomic species (ntypx) = 10
     Max number of k-points (npk) =  40000
     Max angular momentum in pseudopotentials (lmaxx) =  4

     R & G space division:  proc/nbgrp/npool/nimage =       6
     Subspace diagonalization in iterative solution of the eigenvalue problem:
     a serial algorithm will be used


     Parallelization info
     --------------------
     sticks:   dense  smooth     PW     G-vecs:    dense   smooth      PW
     Min         142     142     42                14559    14559    2268
     Max         144     144     43                14566    14566    2279
     Sum         859     859    253                87375    87375   13629

     Using Slab Decomposition



     bravais-lattice index     =            4
     lattice parameter (alat)  =       8.8439  a.u.
     unit-cell volume          =    2560.0529 (a.u.)^3
     number of atoms/cell      =            2
     number of atomic types    =            1
     number of electrons       =        28.00
     number of Kohn-Sham states=           18
     kinetic-energy cutoff     =      40.0000  Ry
     charge density cutoff     =     160.0000  Ry
     scf convergence threshold =      1.0E-06
     mixing beta               =       0.7000
     number of iterations used =            8  plain     mixing
     Exchange-correlation= SLA  PW   PBE  PBE
                           (   1   4   3   4   0   0   0)

     celldm(1)=   8.843918  celldm(2)=   0.000000  celldm(3)=   4.273504
     celldm(4)=   0.000000  celldm(5)=   0.000000  celldm(6)=   0.000000

     crystal axes: (cart. coord. in units of alat)
               a(1) = (   1.000000   0.000000   0.000000 )  
               a(2) = (  -0.500000   0.866025   0.000000 )  
               a(3) = (   0.000000   0.000000   4.273504 )  

     reciprocal axes: (cart. coord. in units 2 pi/alat)
               b(1) = (  1.000000  0.577350 -0.000000 )  
               b(2) = (  0.000000  1.154701  0.000000 )  
               b(3) = (  0.000000 -0.000000  0.234000 )  


     PseudoPot. # 1 for Sn read from file:
     ../pseudo/Sn_pbe_v1.uspp.F.UPF
     MD5 check sum: 4cf58ce39ec5d5d420df3dd08604eb00
     Pseudo is Ultrasoft + core correction, Zval = 14.0
     Generated by new atomic code, or converted to UPF format
     Using radial grid of  891 points,  6 beta functions with: 
                l(1) =   0
                l(2) =   0
                l(3) =   1
                l(4) =   1
                l(5) =   2
                l(6) =   2
     Q(r) pseudized with  6 coefficients,  rinner =    1.200   1.200   1.200
                                                       1.200   1.200

     atomic species   valence    mass     pseudopotential
        Sn            14.00   118.71000     Sn( 1.00)

     24 Sym. Ops., with inversion, found



   Cartesian axes

     site n.     atom                  positions (alat units)
         1           Sn  tau(   1) = (   0.0000000   0.5773503   2.1367521  )
         2           Sn  tau(   2) = (   0.5000000   0.2886751   2.1367521  )

     number of k points=    61  Methfessel-Paxton smearing, width (Ry)=  0.0200
                       cart. coord. in units 2pi/alat
        k(    1) = (   0.0000000   0.0000000   0.0000000), wk =   0.0034722
        k(    2) = (   0.0000000   0.0481125   0.0000000), wk =   0.0208333
        k(    3) = (   0.0000000   0.0962250   0.0000000), wk =   0.0208333
        k(    4) = (   0.0000000   0.1443376   0.0000000), wk =   0.0208333
        k(    5) = (   0.0000000   0.1924501   0.0000000), wk =   0.0208333
        k(    6) = (   0.0000000   0.2405626   0.0000000), wk =   0.0208333
        k(    7) = (   0.0000000   0.2886751   0.0000000), wk =   0.0208333
        k(    8) = (   0.0000000   0.3367877   0.0000000), wk =   0.0208333
        k(    9) = (   0.0000000   0.3849002   0.0000000), wk =   0.0208333
        k(   10) = (   0.0000000   0.4330127   0.0000000), wk =   0.0208333
        k(   11) = (   0.0000000   0.4811252   0.0000000), wk =   0.0208333
        k(   12) = (   0.0000000   0.5292377   0.0000000), wk =   0.0208333
        k(   13) = (   0.0000000  -0.5773503   0.0000000), wk =   0.0104167
        k(   14) = (   0.0416667   0.0721688   0.0000000), wk =   0.0208333
        k(   15) = (   0.0416667   0.1202813   0.0000000), wk =   0.0416667
        k(   16) = (   0.0416667   0.1683938   0.0000000), wk =   0.0416667
        k(   17) = (   0.0416667   0.2165064   0.0000000), wk =   0.0416667
        k(   18) = (   0.0416667   0.2646189   0.0000000), wk =   0.0416667
        k(   19) = (   0.0416667   0.3127314   0.0000000), wk =   0.0416667
        k(   20) = (   0.0416667   0.3608439   0.0000000), wk =   0.0416667
        k(   21) = (   0.0416667   0.4089564   0.0000000), wk =   0.0416667
        k(   22) = (   0.0416667   0.4570690   0.0000000), wk =   0.0416667
        k(   23) = (   0.0416667   0.5051815   0.0000000), wk =   0.0416667
        k(   24) = (   0.0416667   0.5532940   0.0000000), wk =   0.0416667
        k(   25) = (   0.0833333   0.1443376   0.0000000), wk =   0.0208333
        k(   26) = (   0.0833333   0.1924501   0.0000000), wk =   0.0416667
        k(   27) = (   0.0833333   0.2405626   0.0000000), wk =   0.0416667
        k(   28) = (   0.0833333   0.2886751   0.0000000), wk =   0.0416667
        k(   29) = (   0.0833333   0.3367877   0.0000000), wk =   0.0416667
        k(   30) = (   0.0833333   0.3849002   0.0000000), wk =   0.0416667
        k(   31) = (   0.0833333   0.4330127   0.0000000), wk =   0.0416667
        k(   32) = (   0.0833333   0.4811252   0.0000000), wk =   0.0416667
        k(   33) = (   0.0833333   0.5292377   0.0000000), wk =   0.0416667
        k(   34) = (   0.0833333   0.5773503   0.0000000), wk =   0.0208333
        k(   35) = (   0.1250000   0.2165064   0.0000000), wk =   0.0208333
        k(   36) = (   0.1250000   0.2646189   0.0000000), wk =   0.0416667
        k(   37) = (   0.1250000   0.3127314   0.0000000), wk =   0.0416667
        k(   38) = (   0.1250000   0.3608439   0.0000000), wk =   0.0416667
        k(   39) = (   0.1250000   0.4089564   0.0000000), wk =   0.0416667
        k(   40) = (   0.1250000   0.4570690   0.0000000), wk =   0.0416667
        k(   41) = (   0.1250000   0.5051815   0.0000000), wk =   0.0416667
        k(   42) = (   0.1250000   0.5532940   0.0000000), wk =   0.0416667
        k(   43) = (   0.1666667   0.2886751   0.0000000), wk =   0.0208333
        k(   44) = (   0.1666667   0.3367877   0.0000000), wk =   0.0416667
        k(   45) = (   0.1666667   0.3849002   0.0000000), wk =   0.0416667
        k(   46) = (   0.1666667   0.4330127   0.0000000), wk =   0.0416667
        k(   47) = (   0.1666667   0.4811252   0.0000000), wk =   0.0416667
        k(   48) = (   0.1666667   0.5292377   0.0000000), wk =   0.0416667
        k(   49) = (   0.1666667   0.5773503   0.0000000), wk =   0.0208333
        k(   50) = (   0.2083333   0.3608439   0.0000000), wk =   0.0208333
        k(   51) = (   0.2083333   0.4089564   0.0000000), wk =   0.0416667
        k(   52) = (   0.2083333   0.4570690   0.0000000), wk =   0.0416667
        k(   53) = (   0.2083333   0.5051815   0.0000000), wk =   0.0416667
        k(   54) = (   0.2083333   0.5532940   0.0000000), wk =   0.0416667
        k(   55) = (   0.2500000   0.4330127   0.0000000), wk =   0.0208333
        k(   56) = (   0.2500000   0.4811252   0.0000000), wk =   0.0416667
        k(   57) = (   0.2500000   0.5292377   0.0000000), wk =   0.0416667
        k(   58) = (   0.2500000   0.5773503   0.0000000), wk =   0.0208333
        k(   59) = (   0.2916667   0.5051815   0.0000000), wk =   0.0208333
        k(   60) = (   0.2916667   0.5532940   0.0000000), wk =   0.0416667
        k(   61) = (   0.3333333   0.5773503   0.0000000), wk =   0.0069444

     Dense  grid:    87375 G-vectors     FFT dimensions: (  36,  36, 160)

     Estimated max dynamical RAM per process >      83.26 MB

     Estimated total dynamical RAM >     499.59 MB

     Check: negative core charge=   -0.000001

     Initial potential from superposition of free atoms

     starting charge      25.9999, renormalised to      28.0000

     negative rho (up, down):  1.678E-02 0.000E+00
     Starting wfcs are   18 randomized atomic wfcs

     total cpu time spent up to now is       61.9 secs

     Self-consistent Calculation

     iteration #  1     ecut=    40.00 Ry     beta= 0.70
     Davidson diagonalization with overlap
     ethr =  1.00E-02,  avg # of iterations =  8.1

     negative rho (up, down):  8.988E-03 0.000E+00

     total cpu time spent up to now is      549.4 secs

     total energy              =    -325.42090116 Ry
     estimated scf accuracy    <       2.50442699 Ry

     iteration #  2     ecut=    40.00 Ry     beta= 0.70
     Davidson diagonalization with overlap
     ethr =  8.94E-03,  avg # of iterations =  2.1

     negative rho (up, down):  1.179E-02 0.000E+00

     total cpu time spent up to now is      754.2 secs

     total energy              =    -326.33208052 Ry
     estimated scf accuracy    <       0.37674510 Ry

     iteration #  3     ecut=    40.00 Ry     beta= 0.70
     Davidson diagonalization with overlap
     ethr =  1.35E-03,  avg # of iterations =  2.2

     negative rho (up, down):  1.407E-02 0.000E+00

     total cpu time spent up to now is      959.1 secs

     total energy              =    -326.39070131 Ry
     estimated scf accuracy    <       0.00555335 Ry

     iteration #  4     ecut=    40.00 Ry     beta= 0.70
     Davidson diagonalization with overlap
     ethr =  1.98E-05,  avg # of iterations = 10.1

     negative rho (up, down):  1.418E-02 0.000E+00

     total cpu time spent up to now is     1512.5 secs

     total energy              =    -326.39266754 Ry
     estimated scf accuracy    <       0.00069177 Ry

     iteration #  5     ecut=    40.00 Ry     beta= 0.70
     Davidson diagonalization with overlap
     ethr =  2.47E-06,  avg # of iterations =  4.2

     negative rho (up, down):  1.416E-02 0.000E+00

     total cpu time spent up to now is     1804.2 secs

     End of self-consistent calculation

          k = 0.0000 0.0000 0.0000 ( 10895 PWs)   bands (ev):

   -24.1409 -24.1264 -24.1264 -24.0293 -24.0293 -23.8629 -23.8629 -23.7973
   -23.7973 -23.7330 -12.2397  -4.3229  -3.7097  -3.3746  -3.3746   0.6504
     0.6504   0.6874

          k = 0.0000 0.0481 0.0000 ( 10919 PWs)   bands (ev):

   -24.1420 -24.1310 -24.1295 -24.0297 -24.0286 -23.8587 -23.8579 -23.7981
   -23.7970 -23.7328 -12.2249  -4.3075  -4.1533  -3.4083  -2.9494   0.6152
     0.7140   0.7256

          k = 0.0000 0.0962 0.0000 ( 10887 PWs)   bands (ev):

   -24.1492 -24.1437 -24.1336 -24.0308 -24.0266 -23.8471 -23.8439 -23.8005
   -23.7958 -23.7322 -12.1804  -4.7326  -4.2615  -3.5023  -2.4358   0.5828
     0.7918   0.8979

          k = 0.0000 0.1443 0.0000 ( 10895 PWs)   bands (ev):

   -24.1654 -24.1616 -24.1335 -24.0325 -24.0232 -23.8311 -23.8238 -23.8043
   -23.7941 -23.7308 -12.1066  -5.3133  -4.1851  -3.6400  -2.0002   0.6142
     0.8864   1.1850

          k = 0.0000 0.1925 0.0000 ( 10909 PWs)   bands (ev):

   -24.1855 -24.1822 -24.1319 -24.0348 -24.0187 -23.8141 -23.8094 -23.8005
   -23.7918 -23.7275 -12.0037  -5.8831  -4.0793  -3.8021  -1.6991   0.7658
     1.0264   1.3889

          k = 0.0000 0.2406 0.0000 ( 10911 PWs)   bands (ev):

   -24.2067 -24.2034 -24.1295 -24.0374 -24.0132 -23.8156 -23.7995 -23.7893
   -23.7761 -23.7214 -11.8725  -6.4355  -3.9718  -3.9449  -1.5531   0.9958
     1.0104   1.2744

          k = 0.0000 0.2887 0.0000 ( 10909 PWs)   bands (ev):

   -24.2273 -24.2237 -24.1269 -24.0401 -24.0069 -23.8228 -23.7892 -23.7866
   -23.7523 -23.7115 -11.7142  -6.9654  -4.1365  -3.7840  -1.5254   0.5878
     1.2346   1.7113

          k = 0.0000 0.3368 0.0000 ( 10916 PWs)   bands (ev):

   -24.2461 -24.2422 -24.1241 -24.0428 -24.0000 -23.8304 -23.7839 -23.7835
   -23.7303 -23.6989 -11.5309  -7.4675  -4.2871  -3.5991  -1.5609   0.1798
     1.4543   2.1206

          k = 0.0000 0.3849 0.0000 ( 10938 PWs)   bands (ev):

   -24.2625 -24.2580 -24.1215 -24.0452 -23.9931 -23.8381 -23.7815 -23.7809
   -23.7112 -23.6857 -11.3267  -7.9355  -4.4171  -3.3949  -1.6200  -0.2154
     1.6942   2.3462

          k = 0.0000 0.4330 0.0000 ( 10948 PWs)   bands (ev):

   -24.2757 -24.2709 -24.1193 -24.0472 -23.9865 -23.8453 -23.7801 -23.7795
   -23.6956 -23.6738 -11.1095  -8.3597  -4.5221  -3.1799  -1.6800  -0.5838
     1.9609   2.6713

          k = 0.0000 0.4811 0.0000 ( 10930 PWs)   bands (ev):

   -24.2855 -24.2802 -24.1175 -24.0488 -23.9809 -23.8513 -23.7800 -23.7779
   -23.6840 -23.6645 -10.8961  -8.7220  -4.5990  -2.9710  -1.7289  -0.9046
     2.2542   2.8681

          k = 0.0000 0.5292 0.0000 ( 10944 PWs)   bands (ev):

   -24.2915 -24.2860 -24.1164 -24.0497 -23.9772 -23.8554 -23.7802 -23.7770
   -23.6770 -23.6587 -10.7224  -8.9853  -4.6459  -2.8031  -1.7603  -1.1405
     2.5712   3.1345

          k = 0.0000-0.5774 0.0000 ( 10920 PWs)   bands (ev):

   -24.2935 -24.2879 -24.1160 -24.0501 -23.9758 -23.8568 -23.7803 -23.7767
   -23.6746 -23.6567 -10.6509  -9.0868  -4.6617  -2.7346  -1.7710  -1.2319
     2.8362   3.0252

          k = 0.0417 0.0722 0.0000 ( 10889 PWs)   bands (ev):

   -24.1473 -24.1361 -24.1354 -24.0304 -24.0272 -23.8508 -23.8484 -23.7997
   -23.7962 -23.7324 -12.1952  -4.5754  -4.2768  -3.4758  -2.5645   0.5802
     0.7699   0.8460

          k = 0.0417 0.1203 0.0000 ( 10891 PWs)   bands (ev):

   -24.1628 -24.1490 -24.1358 -24.0319 -24.0245 -23.8370 -23.8315 -23.8028
   -23.7947 -23.7314 -12.1361  -5.1055  -4.2156  -3.6004  -2.1240   0.5605
     0.8431   1.1024

          k = 0.0417 0.1684 0.0000 ( 10912 PWs)   bands (ev):

   -24.1835 -24.1660 -24.1343 -24.0340 -24.0205 -23.8205 -23.8103 -23.8073
   -23.7927 -23.7289 -12.0477  -5.6552  -4.1245  -3.7602  -1.7554   0.6232
     0.9490   1.4591

          k = 0.0417 0.2165 0.0000 ( 10911 PWs)   bands (ev):

   -24.2059 -24.1850 -24.1321 -24.0364 -24.0155 -23.8131 -23.8045 -23.7902
   -23.7874 -23.7238 -11.9306  -6.2009  -4.0043  -3.9354  -1.5224   0.8204
     1.1010   1.1667

          k = 0.0417 0.2646 0.0000 ( 10905 PWs)   bands (ev):

   -24.2281 -24.2040 -24.1295 -24.0391 -24.0094 -23.8199 -23.7921 -23.7876
   -23.7648 -23.7148 -11.7857  -6.7318  -4.1106  -3.8565  -1.4305   0.7702
     1.1031   1.3607

          k = 0.0417 0.3127 0.0000 ( 10918 PWs)   bands (ev):

   -24.2489 -24.2220 -24.1267 -24.0419 -24.0027 -23.8274 -23.7848 -23.7845
   -23.7436 -23.7018 -11.6146  -7.2409  -4.2747  -3.6833  -1.4329   0.3656
     1.3458   1.8087

          k = 0.0417 0.3608 0.0000 ( 10930 PWs)   bands (ev):

   -24.2673 -24.2381 -24.1240 -24.0445 -23.9956 -23.8352 -23.7823 -23.7809
   -23.7248 -23.6871 -11.4202  -7.7216  -4.4200  -3.4880  -1.4798  -0.0336
     1.5802   2.2393

          k = 0.0417 0.4090 0.0000 ( 10943 PWs)   bands (ev):

   -24.2828 -24.2516 -24.1215 -24.0468 -23.9886 -23.8428 -23.7800 -23.7795
   -23.7090 -23.6729 -11.2081  -8.1656  -4.5413  -3.2770  -1.5390  -0.4145
     1.8346   2.4758

          k = 0.0417 0.4571 0.0000 ( 10949 PWs)   bands (ev):

   -24.2947 -24.2620 -24.1194 -24.0486 -23.9823 -23.8497 -23.7793 -23.7782
   -23.6966 -23.6610 -10.9895  -8.5596  -4.6350  -3.0619  -1.5932  -0.7605
     2.1153   2.7323

          k = 0.0417 0.5052 0.0000 ( 10937 PWs)   bands (ev):

   -24.3029 -24.2692 -24.1180 -24.0499 -23.9775 -23.8549 -23.7795 -23.7769
   -23.6882 -23.6527 -10.7891  -8.8777  -4.6986  -2.8669  -1.6332  -1.0443
     2.4216   2.9898

          k = 0.0417 0.5533 0.0000 ( 10926 PWs)   bands (ev):

   -24.3070 -24.2728 -24.1172 -24.0505 -23.9748 -23.8578 -23.7797 -23.7763
   -23.6839 -23.6483 -10.6571  -9.0688  -4.7308  -2.7400  -1.6542  -1.2161
     2.7419   3.1426

          k = 0.0833 0.1443 0.0000 ( 10893 PWs)   bands (ev):

   -24.1833 -24.1580 -24.1370 -24.0337 -24.0211 -23.8228 -23.8139 -23.8067
   -23.7929 -23.7293 -12.0624  -5.5696  -4.1396  -3.7597  -1.7575   0.5407
     0.9234   1.4519

          k = 0.0833 0.1925 0.0000 ( 10889 PWs)   bands (ev):

   -24.2062 -24.1717 -24.1360 -24.0361 -24.0164 -23.8119 -23.8069 -23.7945
   -23.7906 -23.7246 -11.9597  -6.0662  -4.0341  -3.9499  -1.4369   0.5979
     1.0371   1.2609

          k = 0.0833 0.2406 0.0000 ( 10908 PWs)   bands (ev):

   -24.2296 -24.1875 -24.1339 -24.0388 -24.0106 -23.8184 -23.7928 -23.7879
   -23.7757 -23.7155 -11.8288  -6.5689  -4.1471  -3.9003  -1.2330   0.7973
     0.8933   1.1878

          k = 0.0833 0.2887 0.0000 ( 10911 PWs)   bands (ev):

   -24.2520 -24.2033 -24.1313 -24.0416 -24.0040 -23.8257 -23.7851 -23.7834
   -23.7579 -23.7015 -11.6707  -7.0635  -4.3358  -3.7398  -1.1574   0.5074
     1.1328   1.3962

          k = 0.0833 0.3368 0.0000 ( 10927 PWs)   bands (ev):

   -24.2723 -24.2181 -24.1286 -24.0444 -23.9968 -23.8337 -23.7824 -23.7788
   -23.7411 -23.6849 -11.4876  -7.5402  -4.5060  -3.5553  -1.1657   0.1174
     1.4643   1.7585

          k = 0.0833 0.3849 0.0000 ( 10943 PWs)   bands (ev):

   -24.2899 -24.2311 -24.1260 -24.0470 -23.9893 -23.8418 -23.7799 -23.7773
   -23.7261 -23.6684 -11.2833  -7.9901  -4.6513  -3.3513  -1.2105  -0.2639
     1.7308   2.2813

          k = 0.0833 0.4330 0.0000 ( 10949 PWs)   bands (ev):

   -24.3041 -24.2417 -24.1237 -24.0491 -23.9822 -23.8495 -23.7778 -23.7771
   -23.7137 -23.6540 -11.0655  -8.4022  -4.7676  -3.1358  -1.2628  -0.6225
     2.0035   2.6099

          k = 0.0833 0.4811 0.0000 ( 10951 PWs)   bands (ev):

   -24.3145 -24.2496 -24.1219 -24.0507 -23.9762 -23.8560 -23.7775 -23.7762
   -23.7044 -23.6430 -10.8503  -8.7577  -4.8523  -2.9253  -1.3075  -0.9379
     2.2989   2.8316

          k = 0.0833 0.5292 0.0000 ( 10921 PWs)   bands (ev):

   -24.3208 -24.2544 -24.1208 -24.0517 -23.9720 -23.8604 -23.7779 -23.7752
   -23.6987 -23.6362 -10.6736  -9.0191  -4.9037  -2.7546  -1.3368  -1.1726
     2.6155   2.9782

          k = 0.0833 0.5774 0.0000 ( 10916 PWs)   bands (ev):

   -24.3230 -24.2560 -24.1204 -24.0521 -23.9705 -23.8620 -23.7780 -23.7749
   -23.6968 -23.6339 -10.6002  -9.1209  -4.9210  -2.6842  -1.3469  -1.2645
     2.8780   3.0189

          k = 0.1250 0.2165 0.0000 ( 10891 PWs)   bands (ev):

   -24.2301 -24.1805 -24.1365 -24.0387 -24.0110 -23.8179 -23.7922 -23.7880
   -23.7805 -23.7155 -11.8432  -6.5092  -4.1706  -3.9149  -1.1208   0.6195
     0.9373   1.1591

          k = 0.1250 0.2646 0.0000 ( 10904 PWs)   bands (ev):

   -24.2535 -24.1914 -24.1357 -24.0416 -24.0045 -23.8251 -23.7852 -23.7798
   -23.7687 -23.7010 -11.6988  -6.9633  -4.3927  -3.7682  -0.8905   0.5856
     0.7725   1.3163

          k = 0.1250 0.3127 0.0000 ( 10922 PWs)   bands (ev):

   -24.2754 -24.2028 -24.1340 -24.0446 -23.9971 -23.8331 -23.7823 -23.7742
   -23.7554 -23.6830 -11.5283  -7.4147  -4.5984  -3.5960  -0.7877   0.2199
     1.0947   1.5111

          k = 0.1250 0.3608 0.0000 ( 10950 PWs)   bands (ev):

   -24.2948 -24.2137 -24.1319 -24.0474 -23.9892 -23.8416 -23.7795 -23.7729
   -23.7418 -23.6647 -11.3341  -7.8525  -4.7779  -3.4015  -0.7782  -0.1476
     1.5272   1.7650

          k = 0.1250 0.4090 0.0000 ( 10948 PWs)   bands (ev):

   -24.3110 -24.2232 -24.1298 -24.0499 -23.9813 -23.8501 -23.7771 -23.7732
   -23.7298 -23.6482 -11.1214  -8.2660  -4.9254  -3.1903  -0.8096  -0.5045
     1.8994   2.1889

          k = 0.1250 0.4571 0.0000 ( 10948 PWs)   bands (ev):

   -24.3236 -24.2308 -24.1279 -24.0519 -23.9740 -23.8579 -23.7752 -23.7740
   -23.7203 -23.6349 -10.9006  -8.6406  -5.0380  -2.9733  -0.8497  -0.8351
     2.2010   2.6789

          k = 0.1250 0.5052 0.0000 ( 10943 PWs)   bands (ev):

   -24.3321 -24.2360 -24.1265 -24.0533 -23.9682 -23.8641 -23.7748 -23.7738
   -23.7137 -23.6256 -10.6952  -8.9500  -5.1139  -2.7736  -1.1123  -0.8826
     2.5104   2.7529

          k = 0.1250 0.5533 0.0000 ( 10946 PWs)   bands (ev):

   -24.3365 -24.2387 -24.1258 -24.0540 -23.9649 -23.8675 -23.7753 -23.7731
   -23.7103 -23.6209 -10.5569  -9.1408  -5.1521  -2.6406  -1.2847  -0.9005
     2.7653   2.8271

          k = 0.1667 0.2887 0.0000 ( 10925 PWs)   bands (ev):

   -24.2764 -24.1967 -24.1367 -24.0447 -23.9972 -23.8330 -23.7822 -23.7669
   -23.7661 -23.6824 -11.5419  -7.3692  -4.6368  -3.6096  -0.5791   0.2566
     0.8373   1.4826

          k = 0.1667 0.3368 0.0000 ( 10935 PWs)   bands (ev):

   -24.2973 -24.2029 -24.1367 -24.0478 -23.9890 -23.8417 -23.7793 -23.7664
   -23.7544 -23.6628 -11.3597  -7.7753  -4.8585  -3.4268  -0.3874  -0.0832
     1.0770   1.6830

          k = 0.1667 0.3849 0.0000 ( 10945 PWs)   bands (ev):

   -24.3152 -24.2091 -24.1360 -24.0506 -23.9804 -23.8509 -23.7766 -23.7676
   -23.7434 -23.6445 -11.1556  -8.1713  -5.0469  -3.2236  -0.4235  -0.3237
     1.4926   1.9179

          k = 0.1667 0.4330 0.0000 ( 10942 PWs)   bands (ev):

   -24.3298 -24.2147 -24.1349 -24.0530 -23.9719 -23.8599 -23.7743 -23.7691
   -23.7342 -23.6292 -10.9362  -8.5454  -5.1965  -3.0071  -0.7522  -0.3264
     1.9997   2.1986

          k = 0.1667 0.4811 0.0000 ( 10952 PWs)   bands (ev):

   -24.3404 -24.2190 -24.1338 -24.0548 -23.9642 -23.8678 -23.7725 -23.7705
   -23.7274 -23.6176 -10.7157  -8.8792  -5.3045  -2.7918  -1.0507  -0.3482
     2.4217   2.5575

          k = 0.1667 0.5292 0.0000 ( 10952 PWs)   bands (ev):

   -24.3470 -24.2218 -24.1331 -24.0559 -23.9587 -23.8736 -23.7715 -23.7714
   -23.7232 -23.6105 -10.5286  -9.1353  -5.3697  -2.6111  -1.2824  -0.3672
     2.5310   2.7459

          k = 0.1667 0.5774 0.0000 ( 10957 PWs)   bands (ev):

   -24.3491 -24.2227 -24.1328 -24.0563 -23.9567 -23.8757 -23.7717 -23.7711
   -23.7218 -23.6080 -10.4478  -9.2393  -5.3914  -2.5337  -1.3771  -0.3743
     2.5189   2.9815

          k = 0.2083 0.3608 0.0000 ( 10951 PWs)   bands (ev):

   -24.3167 -24.2035 -24.1389 -24.0508 -23.9800 -23.8512 -23.7763 -23.7630
   -23.7506 -23.6433 -11.1672  -8.1370  -5.0922  -3.2348  -0.3943  -0.0467
     1.1779   1.8926

          k = 0.2083 0.4090 0.0000 ( 10953 PWs)   bands (ev):

   -24.3329 -24.2046 -24.1403 -24.0536 -23.9706 -23.8611 -23.7737 -23.7637
   -23.7443 -23.6262 -10.9546  -8.4912  -5.2867  -3.0246  -0.7054   0.1418
     1.4839   2.1341

          k = 0.2083 0.4571 0.0000 ( 10975 PWs)   bands (ev):

   -24.3455 -24.2058 -24.1410 -24.0558 -23.9613 -23.8707 -23.7716 -23.7652
   -23.7386 -23.6126 -10.7300  -8.8258  -5.4357  -2.8046  -1.0044   0.2010
     1.9590   2.4023

          k = 0.2083 0.5052 0.0000 ( 10973 PWs)   bands (ev):

   -24.3541 -24.2069 -24.1413 -24.0573 -23.9533 -23.8789 -23.7701 -23.7665
   -23.7345 -23.6032 -10.5133  -9.1179  -5.5360  -2.5942  -1.2692   0.2086
     2.3574   2.4973

          k = 0.2083 0.5533 0.0000 ( 10974 PWs)   bands (ev):

   -24.3585 -24.2075 -24.1413 -24.0581 -23.9483 -23.8840 -23.7694 -23.7673
   -23.7323 -23.5984 -10.3572  -9.3121  -5.5864  -2.4443  -1.4468   0.2055
     2.3169   2.8875

          k = 0.2500 0.4330 0.0000 ( 10961 PWs)   bands (ev):

   -24.3472 -24.2004 -24.1444 -24.0561 -23.9602 -23.8718 -23.7713 -23.7620
   -23.7439 -23.6110 -10.7352  -8.8059  -5.4823  -2.8091  -0.9872   0.5255
     1.6049   2.3839

          k = 0.2500 0.4811 0.0000 ( 10981 PWs)   bands (ev):

   -24.3578 -24.1969 -24.1478 -24.0581 -23.9500 -23.8822 -23.7694 -23.7619
   -23.7425 -23.5995 -10.5069  -9.1040  -5.6258  -2.5868  -1.2582   0.7274
     1.9381   2.2653

          k = 0.2500 0.5292 0.0000 ( 10982 PWs)   bands (ev):

   -24.3642 -24.1945 -24.1500 -24.0594 -23.9414 -23.8909 -23.7683 -23.7623
   -23.7411 -23.5924 -10.2966  -9.3570  -5.7130  -2.3840  -1.4908   0.7927
     2.1873   2.3776

          k = 0.2500 0.5774 0.0000 ( 10975 PWs)   bands (ev):

   -24.3664 -24.1937 -24.1509 -24.0598 -23.9377 -23.8946 -23.7679 -23.7625
   -23.7406 -23.5900 -10.1929  -9.4750  -5.7423  -2.2849  -1.6000   0.8060
     2.1603   2.6180

          k = 0.2917 0.5052 0.0000 ( 10963 PWs)   bands (ev):

   -24.3661 -24.1886 -24.1546 -24.0598 -23.9385 -23.8938 -23.7679 -23.7593
   -23.7455 -23.5904 -10.2751  -9.3722  -5.7570  -2.3625  -1.5060   1.1598
     2.0116   2.1426

          k = 0.2917 0.5533 0.0000 ( 10973 PWs)   bands (ev):

   -24.3704 -24.1824 -24.1600 -24.0606 -23.9290 -23.9034 -23.7671 -23.7578
   -23.7473 -23.5858 -10.0691  -9.5964  -5.8237  -2.1649  -1.7152   1.3668
     2.0784   2.1956

          k = 0.3333 0.5774 0.0000 ( 10977 PWs)   bands (ev):

   -24.3725 -24.1708 -24.1708 -24.0611 -23.9162 -23.9162 -23.7667 -23.7528
   -23.7528 -23.5835  -9.8346  -9.8346  -5.8613  -1.9408  -1.9408   1.8631
     1.8632   2.0412

     the Fermi energy is    -2.2966 ev

!    total energy              =    -326.39281799 Ry
     estimated scf accuracy    <       0.00000041 Ry
     smearing contrib. (-TS)   =       0.00026203 Ry
     internal energy E=F+TS    =    -326.39308003 Ry

     The total energy is F=E-TS. E is the sum of the following terms:
     one-electron contribution =    -882.82127064 Ry
     hartree contribution      =     448.52518901 Ry
     xc contribution           =     -95.07530215 Ry
     ewald contribution        =     202.97830376 Ry

     convergence has been achieved in   5 iterations

     Writing all to output data dir ../tmp/stanene.save/

     init_run     :     35.27s CPU     61.73s WALL (       1 calls)
     electrons    :   1063.75s CPU   1742.30s WALL (       1 calls)

     Called by init_run:
     wfcinit      :     34.34s CPU     60.35s WALL (       1 calls)
     potinit      :      0.06s CPU      0.08s WALL (       1 calls)
     hinit0       :      0.34s CPU      0.35s WALL (       1 calls)

     Called by electrons:
     c_bands      :   1005.24s CPU   1645.05s WALL (       5 calls)
     sum_band     :     55.85s CPU     91.91s WALL (       5 calls)
     v_of_rho     :      0.14s CPU      0.17s WALL (       6 calls)
     newd         :      2.89s CPU      5.93s WALL (       6 calls)
     mix_rho      :      0.01s CPU      0.02s WALL (       5 calls)

     Called by c_bands:
     init_us_2    :      0.54s CPU      0.57s WALL (     671 calls)
     init_us_2:cp :      0.54s CPU      0.57s WALL (     671 calls)
     cegterg      :    982.57s CPU   1624.40s WALL (     305 calls)

     Called by *egterg:
     cdiaghg      :     77.20s CPU    131.22s WALL (    1940 calls)
     h_psi        :    378.43s CPU    652.27s WALL (    2001 calls)
     s_psi        :     16.67s CPU     34.52s WALL (    2001 calls)
     g_psi        :      0.15s CPU      0.23s WALL (    1635 calls)

     Called by h_psi:
     h_psi:calbec :    253.99s CPU    461.02s WALL (    2001 calls)
     vloc_psi     :     79.06s CPU     77.75s WALL (    2001 calls)
     add_vuspsi   :     45.19s CPU    112.79s WALL (    2001 calls)

     General routines
     calbec       :    298.96s CPU    537.70s WALL (    2306 calls)
     fft          :      0.32s CPU      0.34s WALL (      66 calls)
     ffts         :      0.05s CPU      0.05s WALL (       5 calls)
     fftw         :     86.55s CPU     85.56s WALL (   43230 calls)

     Parallel routines

     PWSCF        :  18m19.51s CPU  30m 4.78s WALL


   This run was terminated on:  22:32:19  15Jun2024            

=------------------------------------------------------------------------------=
   JOB DONE.
=------------------------------------------------------------------------------=
