
     Program PWSCF v.6.7MaX starts on 25Jan2024 at 10:24:25 

     This program is part of the open-source Quantum ESPRESSO suite
     for quantum simulation of materials; please cite
         "P. Giannozzi et al., J. Phys.:Condens. Matter 21 395502 (2009);
         "P. Giannozzi et al., J. Phys.:Condens. Matter 29 465901 (2017);
          URL http://www.quantum-espresso.org", 
     in publications or presentations arising from this work. More details at
     http://www.quantum-espresso.org/quote

     Parallel version (MPI), running on     6 processors

     MPI processes distributed on     1 nodes
     R & G space division:  proc/nbgrp/npool/nimage =       6
     Waiting for input...
     Reading input from standard input

     Current dimensions of program PWSCF are:
     Max number of different atomic species (ntypx) = 10
     Max number of k-points (npk) =  40000
     Max angular momentum in pseudopotentials (lmaxx) =  3

     Subspace diagonalization in iterative solution of the eigenvalue problem:
     one sub-group per band group will be used
     scalapack distributed-memory algorithm (size of sub-group:  2*  2 procs)

     Message from routine setup:
     using ibrav=0 with symmetry is DISCOURAGED, use correct ibrav instead

     Parallelization info
     --------------------
     sticks:   dense  smooth     PW     G-vecs:    dense   smooth      PW
     Min         431     214     60                75773    26776    3982
     Max         432     215     61                75788    26799    3999
     Sum        2587    1285    361               454685   160699   23931



     bravais-lattice index     =            0
     lattice parameter (alat)  =       8.8439  a.u.
     unit-cell volume          =    2560.0529 (a.u.)^3
     number of atoms/cell      =            2
     number of atomic types    =            1
     number of electrons       =        28.00
     number of Kohn-Sham states=           18
     kinetic-energy cutoff     =      60.0000  Ry
     charge density cutoff     =     480.0000  Ry
     scf convergence threshold =      4.0E-10
     mixing beta               =       0.4000
     number of iterations used =            8  plain     mixing
     Exchange-correlation= SLA  PW   PBE  PBE
                           (   1   4   3   4   0   0   0)

     celldm(1)=   8.843918  celldm(2)=   0.000000  celldm(3)=   0.000000
     celldm(4)=   0.000000  celldm(5)=   0.000000  celldm(6)=   0.000000

     crystal axes: (cart. coord. in units of alat)
               a(1) = (   1.000000   0.000000   0.000000 )  
               a(2) = (  -0.500000   0.866025   0.000000 )  
               a(3) = (   0.000000   0.000000   4.273504 )  

     reciprocal axes: (cart. coord. in units 2 pi/alat)
               b(1) = (  1.000000  0.577350 -0.000000 )  
               b(2) = (  0.000000  1.154701  0.000000 )  
               b(3) = (  0.000000 -0.000000  0.234000 )  


     PseudoPot. # 1 for Sn read from file:
     ../pseudo/Sn_pbe_v1.uspp.F.UPF
     MD5 check sum: 4cf58ce39ec5d5d420df3dd08604eb00
     Pseudo is Ultrasoft + core correction, Zval = 14.0
     Generated by new atomic code, or converted to UPF format
     Using radial grid of  891 points,  6 beta functions with: 
                l(1) =   0
                l(2) =   0
                l(3) =   1
                l(4) =   1
                l(5) =   2
                l(6) =   2
     Q(r) pseudized with  6 coefficients,  rinner =    1.200   1.200   1.200
                                                       1.200   1.200

     atomic species   valence    mass     pseudopotential
        Sn            14.00   118.71000     Sn( 1.00)

     24 Sym. Ops., with inversion, found


                                    s                        frac. trans.

      isym =  1     identity                                     

 cryst.   s( 1) = (     1          0          0      )
                  (     0          1          0      )
                  (     0          0          1      )

 cart.    s( 1) = (  1.0000000  0.0000000  0.0000000 )
                  (  0.0000000  1.0000000  0.0000000 )
                  (  0.0000000  0.0000000  1.0000000 )


      isym =  2     180 deg rotation - cart. axis [0,0,1]        

 cryst.   s( 2) = (    -1          0          0      )
                  (     0         -1          0      )
                  (     0          0          1      )

 cart.    s( 2) = ( -1.0000000  0.0000000  0.0000000 )
                  (  0.0000000 -1.0000000  0.0000000 )
                  (  0.0000000  0.0000000  1.0000000 )


      isym =  3     180 deg rotation - cart. axis [0,1,0]        

 cryst.   s( 3) = (    -1          0          0      )
                  (     1          1          0      )
                  (     0          0         -1      )

 cart.    s( 3) = ( -1.0000000  0.0000000  0.0000000 )
                  (  0.0000000  1.0000000  0.0000000 )
                  (  0.0000000  0.0000000 -1.0000000 )


      isym =  4     180 deg rotation - cart. axis [1,0,0]        

 cryst.   s( 4) = (     1          0          0      )
                  (    -1         -1          0      )
                  (     0          0         -1      )

 cart.    s( 4) = (  1.0000000  0.0000000  0.0000000 )
                  (  0.0000000 -1.0000000  0.0000000 )
                  (  0.0000000  0.0000000 -1.0000000 )


      isym =  5      60 deg rotation - cryst. axis [0,0,1]       

 cryst.   s( 5) = (     1          1          0      )
                  (    -1          0          0      )
                  (     0          0          1      )

 cart.    s( 5) = (  0.5000000 -0.8660254  0.0000000 )
                  (  0.8660254  0.5000000  0.0000000 )
                  (  0.0000000  0.0000000  1.0000000 )


      isym =  6      60 deg rotation - cryst. axis [0,0,-1]      

 cryst.   s( 6) = (     0         -1          0      )
                  (     1          1          0      )
                  (     0          0          1      )

 cart.    s( 6) = (  0.5000000  0.8660254  0.0000000 )
                  ( -0.8660254  0.5000000  0.0000000 )
                  (  0.0000000  0.0000000  1.0000000 )


      isym =  7     120 deg rotation - cryst. axis [0,0,1]       

 cryst.   s( 7) = (     0          1          0      )
                  (    -1         -1          0      )
                  (     0          0          1      )

 cart.    s( 7) = ( -0.5000000 -0.8660254  0.0000000 )
                  (  0.8660254 -0.5000000  0.0000000 )
                  (  0.0000000  0.0000000  1.0000000 )


      isym =  8     120 deg rotation - cryst. axis [0,0,-1]      

 cryst.   s( 8) = (    -1         -1          0      )
                  (     1          0          0      )
                  (     0          0          1      )

 cart.    s( 8) = ( -0.5000000  0.8660254  0.0000000 )
                  ( -0.8660254 -0.5000000  0.0000000 )
                  (  0.0000000  0.0000000  1.0000000 )


      isym =  9     180 deg rotation - cryst. axis [1,-1,0]      

 cryst.   s( 9) = (     0         -1          0      )
                  (    -1          0          0      )
                  (     0          0         -1      )

 cart.    s( 9) = (  0.5000000 -0.8660254  0.0000000 )
                  ( -0.8660254 -0.5000000  0.0000000 )
                  (  0.0000000  0.0000000 -1.0000000 )


      isym = 10     180 deg rotation - cryst. axis [2,1,0]       

 cryst.   s(10) = (     1          1          0      )
                  (     0         -1          0      )
                  (     0          0         -1      )

 cart.    s(10) = (  0.5000000  0.8660254  0.0000000 )
                  (  0.8660254 -0.5000000  0.0000000 )
                  (  0.0000000  0.0000000 -1.0000000 )


      isym = 11     180 deg rotation - cryst. axis [0,1,0]       

 cryst.   s(11) = (    -1         -1          0      )
                  (     0          1          0      )
                  (     0          0         -1      )

 cart.    s(11) = ( -0.5000000 -0.8660254  0.0000000 )
                  ( -0.8660254  0.5000000  0.0000000 )
                  (  0.0000000  0.0000000 -1.0000000 )


      isym = 12     180 deg rotation - cryst. axis [1,1,0]       

 cryst.   s(12) = (     0          1          0      )
                  (     1          0          0      )
                  (     0          0         -1      )

 cart.    s(12) = ( -0.5000000  0.8660254  0.0000000 )
                  (  0.8660254  0.5000000  0.0000000 )
                  (  0.0000000  0.0000000 -1.0000000 )


      isym = 13     inversion                                    

 cryst.   s(13) = (    -1          0          0      )
                  (     0         -1          0      )
                  (     0          0         -1      )

 cart.    s(13) = ( -1.0000000  0.0000000  0.0000000 )
                  (  0.0000000 -1.0000000  0.0000000 )
                  (  0.0000000  0.0000000 -1.0000000 )


      isym = 14     inv. 180 deg rotation - cart. axis [0,0,1]   

 cryst.   s(14) = (     1          0          0      )
                  (     0          1          0      )
                  (     0          0         -1      )

 cart.    s(14) = (  1.0000000  0.0000000  0.0000000 )
                  (  0.0000000  1.0000000  0.0000000 )
                  (  0.0000000  0.0000000 -1.0000000 )


      isym = 15     inv. 180 deg rotation - cart. axis [0,1,0]   

 cryst.   s(15) = (     1          0          0      )
                  (    -1         -1          0      )
                  (     0          0          1      )

 cart.    s(15) = (  1.0000000  0.0000000  0.0000000 )
                  (  0.0000000 -1.0000000  0.0000000 )
                  (  0.0000000  0.0000000  1.0000000 )


      isym = 16     inv. 180 deg rotation - cart. axis [1,0,0]   

 cryst.   s(16) = (    -1          0          0      )
                  (     1          1          0      )
                  (     0          0          1      )

 cart.    s(16) = ( -1.0000000  0.0000000  0.0000000 )
                  (  0.0000000  1.0000000  0.0000000 )
                  (  0.0000000  0.0000000  1.0000000 )


      isym = 17     inv.  60 deg rotation - cryst. axis [0,0,1]  

 cryst.   s(17) = (    -1         -1          0      )
                  (     1          0          0      )
                  (     0          0         -1      )

 cart.    s(17) = ( -0.5000000  0.8660254  0.0000000 )
                  ( -0.8660254 -0.5000000  0.0000000 )
                  (  0.0000000  0.0000000 -1.0000000 )


      isym = 18     inv.  60 deg rotation - cryst. axis [0,0,-1] 

 cryst.   s(18) = (     0          1          0      )
                  (    -1         -1          0      )
                  (     0          0         -1      )

 cart.    s(18) = ( -0.5000000 -0.8660254  0.0000000 )
                  (  0.8660254 -0.5000000  0.0000000 )
                  (  0.0000000  0.0000000 -1.0000000 )


      isym = 19     inv. 120 deg rotation - cryst. axis [0,0,1]  

 cryst.   s(19) = (     0         -1          0      )
                  (     1          1          0      )
                  (     0          0         -1      )

 cart.    s(19) = (  0.5000000  0.8660254  0.0000000 )
                  ( -0.8660254  0.5000000  0.0000000 )
                  (  0.0000000  0.0000000 -1.0000000 )


      isym = 20     inv. 120 deg rotation - cryst. axis [0,0,-1] 

 cryst.   s(20) = (     1          1          0      )
                  (    -1          0          0      )
                  (     0          0         -1      )

 cart.    s(20) = (  0.5000000 -0.8660254  0.0000000 )
                  (  0.8660254  0.5000000  0.0000000 )
                  (  0.0000000  0.0000000 -1.0000000 )


      isym = 21     inv. 180 deg rotation - cryst. axis [1,-1,0] 

 cryst.   s(21) = (     0          1          0      )
                  (     1          0          0      )
                  (     0          0          1      )

 cart.    s(21) = ( -0.5000000  0.8660254  0.0000000 )
                  (  0.8660254  0.5000000  0.0000000 )
                  (  0.0000000  0.0000000  1.0000000 )


      isym = 22     inv. 180 deg rotation - cryst. axis [2,1,0]  

 cryst.   s(22) = (    -1         -1          0      )
                  (     0          1          0      )
                  (     0          0          1      )

 cart.    s(22) = ( -0.5000000 -0.8660254  0.0000000 )
                  ( -0.8660254  0.5000000  0.0000000 )
                  (  0.0000000  0.0000000  1.0000000 )


      isym = 23     inv. 180 deg rotation - cryst. axis [0,1,0]  

 cryst.   s(23) = (     1          1          0      )
                  (     0         -1          0      )
                  (     0          0          1      )

 cart.    s(23) = (  0.5000000  0.8660254  0.0000000 )
                  (  0.8660254 -0.5000000  0.0000000 )
                  (  0.0000000  0.0000000  1.0000000 )


      isym = 24     inv. 180 deg rotation - cryst. axis [1,1,0]  

 cryst.   s(24) = (     0         -1          0      )
                  (    -1          0          0      )
                  (     0          0          1      )

 cart.    s(24) = (  0.5000000 -0.8660254  0.0000000 )
                  ( -0.8660254 -0.5000000  0.0000000 )
                  (  0.0000000  0.0000000  1.0000000 )


   Cartesian axes

     site n.     atom                  positions (alat units)
         1           Sn  tau(   1) = (   0.0000000   0.5773503   2.1367521  )
         2           Sn  tau(   2) = (   0.5000000   0.2886751   2.1367521  )

   Crystallographic axes

     site n.     atom                  positions (cryst. coord.)
         1           Sn  tau(   1) = (  0.3333333  0.6666667  0.5000000  )
         2           Sn  tau(   2) = (  0.6666667  0.3333333  0.5000000  )

     number of k points=    32  Marzari-Vanderbilt smearing, width (Ry)=  0.0073
                       cart. coord. in units 2pi/alat
        k(    1) = (   0.0000000   0.0000000   0.0000000), wk =   0.0055096
        k(    2) = (   0.0000000   0.0000000   0.0780000), wk =   0.0110193
        k(    3) = (   0.0000000   0.1049728   0.0000000), wk =   0.0330579
        k(    4) = (   0.0000000   0.1049728   0.0780000), wk =   0.0661157
        k(    5) = (   0.0000000   0.2099456   0.0000000), wk =   0.0330579
        k(    6) = (   0.0000000   0.2099456   0.0780000), wk =   0.0661157
        k(    7) = (   0.0000000   0.3149183   0.0000000), wk =   0.0330579
        k(    8) = (   0.0000000   0.3149183   0.0780000), wk =   0.0661157
        k(    9) = (   0.0000000   0.4198911   0.0000000), wk =   0.0330579
        k(   10) = (   0.0000000   0.4198911   0.0780000), wk =   0.0661157
        k(   11) = (   0.0000000   0.5248639   0.0000000), wk =   0.0330579
        k(   12) = (   0.0000000   0.5248639   0.0780000), wk =   0.0661157
        k(   13) = (   0.0909091   0.1574592   0.0000000), wk =   0.0330579
        k(   14) = (   0.0909091   0.1574592   0.0780000), wk =   0.0661157
        k(   15) = (   0.0909091   0.2624319   0.0000000), wk =   0.0661157
        k(   16) = (   0.0909091   0.2624319   0.0780000), wk =   0.1322314
        k(   17) = (   0.0909091   0.3674047   0.0000000), wk =   0.0661157
        k(   18) = (   0.0909091   0.3674047   0.0780000), wk =   0.1322314
        k(   19) = (   0.0909091   0.4723775   0.0000000), wk =   0.0661157
        k(   20) = (   0.0909091   0.4723775   0.0780000), wk =   0.1322314
        k(   21) = (   0.0909091   0.5773503   0.0000000), wk =   0.0330579
        k(   22) = (   0.0909091   0.5773503   0.0780000), wk =   0.0661157
        k(   23) = (   0.1818182   0.3149183   0.0000000), wk =   0.0330579
        k(   24) = (   0.1818182   0.3149183   0.0780000), wk =   0.0661157
        k(   25) = (   0.1818182   0.4198911   0.0000000), wk =   0.0661157
        k(   26) = (   0.1818182   0.4198911   0.0780000), wk =   0.1322314
        k(   27) = (   0.1818182   0.5248639   0.0000000), wk =   0.0661157
        k(   28) = (   0.1818182   0.5248639   0.0780000), wk =   0.1322314
        k(   29) = (   0.2727273   0.4723775   0.0000000), wk =   0.0330579
        k(   30) = (   0.2727273   0.4723775   0.0780000), wk =   0.0661157
        k(   31) = (   0.2727273   0.5773503   0.0000000), wk =   0.0330579
        k(   32) = (   0.2727273   0.5773503   0.0780000), wk =   0.0661157

                       cryst. coord.
        k(    1) = (   0.0000000   0.0000000   0.0000000), wk =   0.0055096
        k(    2) = (   0.0000000   0.0000000   0.3333333), wk =   0.0110193
        k(    3) = (   0.0000000   0.0909091   0.0000000), wk =   0.0330579
        k(    4) = (   0.0000000   0.0909091   0.3333333), wk =   0.0661157
        k(    5) = (   0.0000000   0.1818182   0.0000000), wk =   0.0330579
        k(    6) = (   0.0000000   0.1818182   0.3333333), wk =   0.0661157
        k(    7) = (   0.0000000   0.2727273   0.0000000), wk =   0.0330579
        k(    8) = (   0.0000000   0.2727273   0.3333333), wk =   0.0661157
        k(    9) = (   0.0000000   0.3636364   0.0000000), wk =   0.0330579
        k(   10) = (   0.0000000   0.3636364   0.3333333), wk =   0.0661157
        k(   11) = (   0.0000000   0.4545455   0.0000000), wk =   0.0330579
        k(   12) = (   0.0000000   0.4545455   0.3333333), wk =   0.0661157
        k(   13) = (   0.0909091   0.0909091   0.0000000), wk =   0.0330579
        k(   14) = (   0.0909091   0.0909091   0.3333333), wk =   0.0661157
        k(   15) = (   0.0909091   0.1818182   0.0000000), wk =   0.0661157
        k(   16) = (   0.0909091   0.1818182   0.3333333), wk =   0.1322314
        k(   17) = (   0.0909091   0.2727273   0.0000000), wk =   0.0661157
        k(   18) = (   0.0909091   0.2727273   0.3333333), wk =   0.1322314
        k(   19) = (   0.0909091   0.3636364   0.0000000), wk =   0.0661157
        k(   20) = (   0.0909091   0.3636364   0.3333333), wk =   0.1322314
        k(   21) = (   0.0909091   0.4545455   0.0000000), wk =   0.0330579
        k(   22) = (   0.0909091   0.4545455   0.3333333), wk =   0.0661157
        k(   23) = (   0.1818182   0.1818182   0.0000000), wk =   0.0330579
        k(   24) = (   0.1818182   0.1818182   0.3333333), wk =   0.0661157
        k(   25) = (   0.1818182   0.2727273   0.0000000), wk =   0.0661157
        k(   26) = (   0.1818182   0.2727273   0.3333333), wk =   0.1322314
        k(   27) = (   0.1818182   0.3636364   0.0000000), wk =   0.0661157
        k(   28) = (   0.1818182   0.3636364   0.3333333), wk =   0.1322314
        k(   29) = (   0.2727273   0.2727273   0.0000000), wk =   0.0330579
        k(   30) = (   0.2727273   0.2727273   0.3333333), wk =   0.0661157
        k(   31) = (   0.2727273   0.3636364   0.0000000), wk =   0.0330579
        k(   32) = (   0.2727273   0.3636364   0.3333333), wk =   0.0661157

     Dense  grid:   454685 G-vectors     FFT dimensions: (  64,  64, 270)

     Smooth grid:   160699 G-vectors     FFT dimensions: (  45,  45, 192)

     Dynamical RAM for                 wfc:       0.92 MB

     Dynamical RAM for     wfc (w. buffer):      30.35 MB

     Dynamical RAM for           str. fact:       1.16 MB

     Dynamical RAM for           local pot:       0.00 MB

     Dynamical RAM for          nlocal pot:       1.84 MB

     Dynamical RAM for                qrad:       1.76 MB

     Dynamical RAM for          rho,v,vnew:       7.69 MB

     Dynamical RAM for               rhoin:       2.56 MB

     Dynamical RAM for            rho*nmix:      18.50 MB

     Dynamical RAM for           G-vectors:       4.54 MB

     Dynamical RAM for          h,s,v(r/c):       0.01 MB

     Dynamical RAM for          <psi|beta>:       0.01 MB

     Dynamical RAM for                 psi:       1.84 MB

     Dynamical RAM for                hpsi:       1.84 MB

     Dynamical RAM for                spsi:       1.84 MB

     Dynamical RAM for      wfcinit/wfcrot:       1.85 MB

     Dynamical RAM for           addusdens:     217.40 MB

     Dynamical RAM for          addusforce:     220.30 MB

     Dynamical RAM for         addusstress:     232.43 MB

     Estimated static dynamical RAM per process >      77.74 MB

     Estimated max dynamical RAM per process >     310.17 MB

     Estimated total dynamical RAM >       1.82 GB

     Initial potential from superposition of free atoms

     starting charge   25.99991, renormalised to   28.00000

     negative rho (up, down):  6.140E-04 0.000E+00
     Starting wfcs are   18 randomized atomic wfcs

     total cpu time spent up to now is        5.0 secs

     Self-consistent Calculation

     iteration #  1     ecut=    60.00 Ry     beta= 0.40
     Davidson diagonalization with overlap
     ethr =  1.00E-02,  avg # of iterations =  7.4

     negative rho (up, down):  4.161E-05 0.000E+00

     total cpu time spent up to now is       18.0 secs

     total energy              =    -326.05056068 Ry
     estimated scf accuracy    <       2.48493456 Ry

     iteration #  2     ecut=    60.00 Ry     beta= 0.40
     Davidson diagonalization with overlap
     ethr =  8.87E-03,  avg # of iterations =  2.0

     negative rho (up, down):  3.147E-05 0.000E+00

     total cpu time spent up to now is       28.9 secs

     total energy              =    -326.35910478 Ry
     estimated scf accuracy    <       0.11159920 Ry

     iteration #  3     ecut=    60.00 Ry     beta= 0.40
     Davidson diagonalization with overlap
     ethr =  3.99E-04,  avg # of iterations =  4.8

     negative rho (up, down):  6.923E-05 0.000E+00

     total cpu time spent up to now is       43.0 secs

     total energy              =    -326.39190383 Ry
     estimated scf accuracy    <       0.00661240 Ry

     iteration #  4     ecut=    60.00 Ry     beta= 0.40
     Davidson diagonalization with overlap
     ethr =  2.36E-05,  avg # of iterations =  5.4

     negative rho (up, down):  8.090E-05 0.000E+00

     total cpu time spent up to now is       54.0 secs

     total energy              =    -326.39230405 Ry
     estimated scf accuracy    <       0.00024743 Ry

     iteration #  5     ecut=    60.00 Ry     beta= 0.40
     Davidson diagonalization with overlap
     ethr =  8.84E-07,  avg # of iterations =  5.2

     negative rho (up, down):  8.547E-05 0.000E+00

     total cpu time spent up to now is       64.3 secs

     total energy              =    -326.39232295 Ry
     estimated scf accuracy    <       0.00002356 Ry

     iteration #  6     ecut=    60.00 Ry     beta= 0.40
     Davidson diagonalization with overlap
     ethr =  8.41E-08,  avg # of iterations =  2.2

     negative rho (up, down):  8.331E-05 0.000E+00

     total cpu time spent up to now is       74.7 secs

     total energy              =    -326.39232604 Ry
     estimated scf accuracy    <       0.00000553 Ry

     iteration #  7     ecut=    60.00 Ry     beta= 0.40
     Davidson diagonalization with overlap
     ethr =  1.98E-08,  avg # of iterations =  2.0

     negative rho (up, down):  8.390E-05 0.000E+00

     total cpu time spent up to now is       83.5 secs

     total energy              =    -326.39232553 Ry
     estimated scf accuracy    <       0.00000043 Ry

     iteration #  8     ecut=    60.00 Ry     beta= 0.40
     Davidson diagonalization with overlap
     ethr =  1.55E-09,  avg # of iterations =  2.8

     negative rho (up, down):  8.386E-05 0.000E+00

     total cpu time spent up to now is       96.0 secs

     total energy              =    -326.39232533 Ry
     estimated scf accuracy    <       0.00000004 Ry

     iteration #  9     ecut=    60.00 Ry     beta= 0.40
     Davidson diagonalization with overlap
     ethr =  1.30E-10,  avg # of iterations =  2.0

     negative rho (up, down):  8.392E-05 0.000E+00

     total cpu time spent up to now is      106.0 secs

     total energy              =    -326.39232523 Ry
     estimated scf accuracy    <          6.4E-09 Ry

     iteration # 10     ecut=    60.00 Ry     beta= 0.40
     Davidson diagonalization with overlap
     ethr =  2.28E-11,  avg # of iterations =  2.8

     negative rho (up, down):  8.414E-05 0.000E+00

     total cpu time spent up to now is      115.8 secs

     End of self-consistent calculation

          k = 0.0000 0.0000 0.0000 ( 20001 PWs)   bands (ev):

   -24.0753 -24.0513 -24.0513 -23.9561 -23.9561 -23.7880 -23.7880 -23.7239
   -23.7239 -23.6680 -12.1804  -4.2761  -3.6507  -3.3126  -3.3126   0.7052
     0.7052   1.0131

     occupation numbers 
     1.0000   1.0000   1.0000   1.0000   1.0000   1.0000   1.0000   1.0000
     1.0000   1.0000   1.0000   1.0000   1.0000   1.0000   1.0000   0.0000
     0.0000   0.0000

          k = 0.0000 0.0000 0.0780 ( 19983 PWs)   bands (ev):

   -24.0753 -24.0513 -24.0513 -23.9561 -23.9561 -23.7880 -23.7880 -23.7239
   -23.7239 -23.6680 -12.1804  -4.2761  -3.6507  -3.3126  -3.3126   0.7052
     0.7052   1.0153

     occupation numbers 
     1.0000   1.0000   1.0000   1.0000   1.0000   1.0000   1.0000   1.0000
     1.0000   1.0000   1.0000   1.0000   1.0000   1.0000   1.0000   0.0000
     0.0000   0.0000

          k = 0.0000 0.1050 0.0000 ( 19983 PWs)   bands (ev):

   -24.0826 -24.0715 -24.0619 -23.9579 -23.9529 -23.7699 -23.7657 -23.7276
   -23.7221 -23.6669 -12.1099  -4.7782  -4.2030  -3.4630  -2.2888   0.6597
     0.9982   1.1128

     occupation numbers 
     1.0000   1.0000   1.0000   1.0000   1.0000   1.0000   1.0000   1.0000
     1.0000   1.0000   1.0000   1.0000   1.0000   1.0000   0.7714   0.0000
     0.0000   0.0000

          k = 0.0000 0.1050 0.0780 ( 20006 PWs)   bands (ev):

   -24.0826 -24.0715 -24.0619 -23.9579 -23.9529 -23.7699 -23.7657 -23.7276
   -23.7221 -23.6669 -12.1099  -4.7783  -4.2030  -3.4630  -2.2888   0.6597
     0.9982   1.1150

     occupation numbers 
     1.0000   1.0000   1.0000   1.0000   1.0000   1.0000   1.0000   1.0000
     1.0000   1.0000   1.0000   1.0000   1.0000   1.0000   0.7714   0.0000
     0.0000   0.0000

          k = 0.0000 0.2099 0.0000 ( 20069 PWs)   bands (ev):

   -24.1206 -24.1148 -24.0625 -23.9626 -23.9437 -23.7381 -23.7356 -23.7175
   -23.7166 -23.6590 -11.8999  -6.0260  -3.9871  -3.8025  -1.5704   0.9665
     1.2916   1.3712

     occupation numbers 
     1.0000   1.0000   1.0000   1.0000   1.0000   1.0000   1.0000   1.0000
     1.0000   1.0000   1.0000   1.0000   1.0000   1.0000   0.0000   0.0000
     0.0000   0.0000

          k = 0.0000 0.2099 0.0780 ( 20055 PWs)   bands (ev):

   -24.1206 -24.1148 -24.0625 -23.9626 -23.9437 -23.7381 -23.7356 -23.7175
   -23.7166 -23.6590 -11.8999  -6.0260  -3.9871  -3.8025  -1.5704   0.9666
     1.2916   1.3734

     occupation numbers 
     1.0000   1.0000   1.0000   1.0000   1.0000   1.0000   1.0000   1.0000
     1.0000   1.0000   1.0000   1.0000   1.0000   1.0000   0.0000   0.0000
     0.0000   0.0000

          k = 0.0000 0.3149 0.0000 ( 20081 PWs)   bands (ev):

   -24.1646 -24.1590 -24.0572 -23.9684 -23.9300 -23.7535 -23.7163 -23.7117
   -23.6650 -23.6349 -11.5577  -7.1829  -4.1601  -3.6399  -1.4826   0.4084
     1.6596   2.1017

     occupation numbers 
     1.0000   1.0000   1.0000   1.0000   1.0000   1.0000   1.0000   1.0000
     1.0000   1.0000   1.0000   1.0000   1.0000   1.0000   0.0000   0.0000
     0.0000   0.0000

          k = 0.0000 0.3149 0.0780 ( 20103 PWs)   bands (ev):

   -24.1646 -24.1590 -24.0572 -23.9684 -23.9300 -23.7535 -23.7163 -23.7117
   -23.6650 -23.6349 -11.5577  -7.1829  -4.1601  -3.6399  -1.4826   0.4084
     1.6614   2.1022

     occupation numbers 
     1.0000   1.0000   1.0000   1.0000   1.0000   1.0000   1.0000   1.0000
     1.0000   1.0000   1.0000   1.0000   1.0000   1.0000   0.0000   0.0000
     0.0000   0.0000

          k = 0.0000 0.4199 0.0000 ( 20129 PWs)   bands (ev):

   -24.1990 -24.1926 -24.0517 -23.9736 -23.9150 -23.7700 -23.7129 -23.7065
   -23.6244 -23.6050 -11.1097  -8.1892  -4.4357  -3.1940  -1.6075  -0.4410
     2.1997   3.0973

     occupation numbers 
     1.0000   1.0000   1.0000   1.0000   1.0000   1.0000   1.0000   1.0000
     1.0000   1.0000   1.0000   1.0000   1.0000   1.0000   0.0000   0.0000
     0.0000   0.0000

          k = 0.0000 0.4199 0.0780 ( 20117 PWs)   bands (ev):

   -24.1990 -24.1926 -24.0517 -23.9736 -23.9150 -23.7700 -23.7129 -23.7065
   -23.6244 -23.6050 -11.1097  -8.1892  -4.4357  -3.1940  -1.6075  -0.4410
     2.2016   3.0497

     occupation numbers 
     1.0000   1.0000   1.0000   1.0000   1.0000   1.0000   1.0000   1.0000
     1.0000   1.0000   1.0000   1.0000   1.0000   1.0000   0.0000   0.0000
     0.0000   0.0000

          k = 0.0000 0.5249 0.0000 ( 20122 PWs)   bands (ev):

   -24.2175 -24.2106 -24.0483 -23.9766 -23.9042 -23.7818 -23.7135 -23.7036
   -23.6024 -23.5867 -10.6752  -8.9073  -4.5826  -2.7721  -1.7015  -1.0759
     2.8380   3.5190

     occupation numbers 
     1.0000   1.0000   1.0000   1.0000   1.0000   1.0000   1.0000   1.0000
     1.0000   1.0000   1.0000   1.0000   1.0000   1.0000   0.0000   0.0000
     0.0000   0.0000

          k = 0.0000 0.5249 0.0780 ( 20119 PWs)   bands (ev):

   -24.2175 -24.2106 -24.0483 -23.9766 -23.9042 -23.7818 -23.7135 -23.7036
   -23.6024 -23.5867 -10.6752  -8.9073  -4.5826  -2.7721  -1.7015  -1.0759
     2.8396   3.5079

     occupation numbers 
     1.0000   1.0000   1.0000   1.0000   1.0000   1.0000   1.0000   1.0000
     1.0000   1.0000   1.0000   1.0000   1.0000   1.0000   0.0000   0.0000
     0.0000   0.0000

          k = 0.0909 0.1575 0.0000 ( 20045 PWs)   bands (ev):

   -24.1180 -24.0876 -24.0689 -23.9614 -23.9464 -23.7430 -23.7350 -23.7329
   -23.7187 -23.6617 -11.9696  -5.6852  -4.0585  -3.7659  -1.5708   0.6172
     1.5205   1.6620

     occupation numbers 
     1.0000   1.0000   1.0000   1.0000   1.0000   1.0000   1.0000   1.0000
     1.0000   1.0000   1.0000   1.0000   1.0000   1.0000   0.0000   0.0000
     0.0000   0.0000

          k = 0.0909 0.1575 0.0780 ( 20041 PWs)   bands (ev):

   -24.1180 -24.0876 -24.0689 -23.9614 -23.9464 -23.7430 -23.7350 -23.7329
   -23.7187 -23.6617 -11.9696  -5.6852  -4.0585  -3.7659  -1.5708   0.6172
     1.5203   1.6616

     occupation numbers 
     1.0000   1.0000   1.0000   1.0000   1.0000   1.0000   1.0000   1.0000
     1.0000   1.0000   1.0000   1.0000   1.0000   1.0000   0.0000   0.0000
     0.0000   0.0000

          k = 0.0909 0.2624 0.0000 ( 20081 PWs)   bands (ev):

   -24.1680 -24.1195 -24.0653 -23.9672 -23.9341 -23.7487 -23.7150 -23.7130
   -23.6954 -23.6381 -11.6925  -6.7574  -4.2015  -3.7759  -1.0732   0.7438
     0.9806   1.5801

     occupation numbers 
     1.0000   1.0000   1.0000   1.0000   1.0000   1.0000   1.0000   1.0000
     1.0000   1.0000   1.0000   1.0000   1.0000   1.0000   0.0000   0.0000
     0.0000   0.0000

          k = 0.0909 0.2624 0.0780 ( 20080 PWs)   bands (ev):

   -24.1680 -24.1195 -24.0653 -23.9672 -23.9341 -23.7487 -23.7150 -23.7130
   -23.6954 -23.6381 -11.6925  -6.7574  -4.2015  -3.7759  -1.0732   0.7438
     0.9807   1.5823

     occupation numbers 
     1.0000   1.0000   1.0000   1.0000   1.0000   1.0000   1.0000   1.0000
     1.0000   1.0000   1.0000   1.0000   1.0000   1.0000   0.0000   0.0000
     0.0000   0.0000

          k = 0.0909 0.3674 0.0000 ( 20085 PWs)   bands (ev):

   -24.2119 -24.1505 -24.0594 -23.9732 -23.9182 -23.7661 -23.7087 -23.7071
   -23.6601 -23.5990 -11.2920  -7.7820  -4.5768  -3.3737  -1.0663  -0.0935
     1.9086   2.1329

     occupation numbers 
     1.0000   1.0000   1.0000   1.0000   1.0000   1.0000   1.0000   1.0000
     1.0000   1.0000   1.0000   1.0000   1.0000   1.0000   0.0000   0.0000
     0.0000   0.0000

          k = 0.0909 0.3674 0.0780 ( 20093 PWs)   bands (ev):

   -24.2119 -24.1505 -24.0594 -23.9732 -23.9182 -23.7661 -23.7087 -23.7071
   -23.6601 -23.5990 -11.2920  -7.7820  -4.5768  -3.3737  -1.0663  -0.0935
     1.9097   2.1340

     occupation numbers 
     1.0000   1.0000   1.0000   1.0000   1.0000   1.0000   1.0000   1.0000
     1.0000   1.0000   1.0000   1.0000   1.0000   1.0000   0.0000   0.0000
     0.0000   0.0000

          k = 0.0909 0.4724 0.0000 ( 20116 PWs)   bands (ev):

   -24.2409 -24.1717 -24.0546 -23.9777 -23.9031 -23.7824 -23.7099 -23.7027
   -23.6352 -23.5683 -10.8197  -8.6459  -4.8191  -2.9094  -1.1713  -0.8459
     2.5589   3.1337

     occupation numbers 
     1.0000   1.0000   1.0000   1.0000   1.0000   1.0000   1.0000   1.0000
     1.0000   1.0000   1.0000   1.0000   1.0000   1.0000   0.0000   0.0000
     0.0000   0.0000

          k = 0.0909 0.4724 0.0780 ( 20107 PWs)   bands (ev):

   -24.2409 -24.1717 -24.0546 -23.9777 -23.9031 -23.7824 -23.7099 -23.7027
   -23.6352 -23.5683 -10.8197  -8.6459  -4.8191  -2.9094  -1.1713  -0.8459
     2.5607   3.1271

     occupation numbers 
     1.0000   1.0000   1.0000   1.0000   1.0000   1.0000   1.0000   1.0000
     1.0000   1.0000   1.0000   1.0000   1.0000   1.0000   0.0000   0.0000
     0.0000   0.0000

          k = 0.0909 0.5774 0.0000 ( 20124 PWs)   bands (ev):

   -24.2510 -24.1791 -24.0528 -23.9793 -23.8964 -23.7896 -23.7108 -23.7011
   -23.6263 -23.5572 -10.5307  -9.0679  -4.9021  -2.6320  -1.2233  -1.2171
     3.1342   3.1512

     occupation numbers 
     1.0000   1.0000   1.0000   1.0000   1.0000   1.0000   1.0000   1.0000
     1.0000   1.0000   1.0000   1.0000   1.0000   1.0000   0.0000   0.0000
     0.0000   0.0000

          k = 0.0909 0.5774 0.0780 ( 20096 PWs)   bands (ev):

   -24.2510 -24.1791 -24.0528 -23.9793 -23.8964 -23.7896 -23.7108 -23.7011
   -23.6263 -23.5572 -10.5307  -9.0679  -4.9021  -2.6320  -1.2233  -1.2171
     3.1351   3.1502

     occupation numbers 
     1.0000   1.0000   1.0000   1.0000   1.0000   1.0000   1.0000   1.0000
     1.0000   1.0000   1.0000   1.0000   1.0000   1.0000   0.0000   0.0000
     0.0000   0.0000

          k = 0.1818 0.3149 0.0000 ( 20081 PWs)   bands (ev):

   -24.2174 -24.1265 -24.0689 -23.9738 -23.9181 -23.7659 -23.7066 -23.6964
   -23.6872 -23.5945 -11.3539  -7.5993  -4.7470  -3.4350  -0.3301   0.0568
     1.0165   1.9354

     occupation numbers 
     1.0000   1.0000   1.0000   1.0000   1.0000   1.0000   1.0000   1.0000
     1.0000   1.0000   1.0000   1.0000   1.0000   1.0000   0.0000   0.0000
     0.0000   0.0000

          k = 0.1818 0.3149 0.0780 ( 20091 PWs)   bands (ev):

   -24.2174 -24.1265 -24.0689 -23.9738 -23.9181 -23.7659 -23.7066 -23.6964
   -23.6872 -23.5945 -11.3539  -7.5993  -4.7470  -3.4350  -0.3301   0.0568
     1.0165   1.9375

     occupation numbers 
     1.0000   1.0000   1.0000   1.0000   1.0000   1.0000   1.0000   1.0000
     1.0000   1.0000   1.0000   1.0000   1.0000   1.0000   0.0000   0.0000
     0.0000   0.0000

          k = 0.1818 0.4199 0.0000 ( 20114 PWs)   bands (ev):

   -24.2553 -24.1365 -24.0684 -23.9799 -23.8988 -23.7862 -23.7008 -23.6992
   -23.6675 -23.5547 -10.9055  -8.4274  -5.1663  -2.9907  -0.6585  -0.0804
     1.8222   2.4337

     occupation numbers 
     1.0000   1.0000   1.0000   1.0000   1.0000   1.0000   1.0000   1.0000
     1.0000   1.0000   1.0000   1.0000   1.0000   1.0000   0.0000   0.0000
     0.0000   0.0000

          k = 0.1818 0.4199 0.0780 ( 20087 PWs)   bands (ev):

   -24.2553 -24.1365 -24.0684 -23.9799 -23.8988 -23.7862 -23.7008 -23.6992
   -23.6675 -23.5547 -10.9055  -8.4274  -5.1663  -2.9907  -0.6585  -0.0804
     1.8222   2.4357

     occupation numbers 
     1.0000   1.0000   1.0000   1.0000   1.0000   1.0000   1.0000   1.0000
     1.0000   1.0000   1.0000   1.0000   1.0000   1.0000   0.0000   0.0000
     0.0000   0.0000

          k = 0.1818 0.5249 0.0000 ( 20112 PWs)   bands (ev):

   -24.2756 -24.1432 -24.0668 -23.9834 -23.8829 -23.8028 -23.7023 -23.6974
   -23.6558 -23.5322 -10.4468  -9.0891  -5.3833  -2.5460  -1.2514  -0.1032
     2.5910   2.9965

     occupation numbers 
     1.0000   1.0000   1.0000   1.0000   1.0000   1.0000   1.0000   1.0000
     1.0000   1.0000   1.0000   1.0000   1.0000   1.0010   0.0000   0.0000
     0.0000   0.0000

          k = 0.1818 0.5249 0.0780 ( 20123 PWs)   bands (ev):

   -24.2756 -24.1432 -24.0668 -23.9834 -23.8829 -23.8028 -23.7023 -23.6974
   -23.6558 -23.5322 -10.4468  -9.0891  -5.3833  -2.5460  -1.2514  -0.1032
     2.5909   2.9968

     occupation numbers 
     1.0000   1.0000   1.0000   1.0000   1.0000   1.0000   1.0000   1.0000
     1.0000   1.0000   1.0000   1.0000   1.0000   1.0010   0.0000   0.0000
     0.0000   0.0000

          k = 0.2727 0.4724 0.0000 ( 20109 PWs)   bands (ev):

   -24.2842 -24.1224 -24.0795 -23.9853 -23.8753 -23.8103 -23.6957 -23.6929
   -23.6732 -23.5232 -10.4253  -9.0676  -5.5910  -2.5220  -1.2376   0.9203
     1.9083   2.3710

     occupation numbers 
     1.0000   1.0000   1.0000   1.0000   1.0000   1.0000   1.0000   1.0000
     1.0000   1.0000   1.0000   1.0000   1.0000   1.0030   0.0000   0.0000
     0.0000   0.0000

          k = 0.2727 0.4724 0.0780 ( 20115 PWs)   bands (ev):

   -24.2842 -24.1224 -24.0795 -23.9853 -23.8753 -23.8103 -23.6957 -23.6929
   -23.6732 -23.5232 -10.4253  -9.0676  -5.5910  -2.5220  -1.2376   0.9203
     1.9083   2.3710

     occupation numbers 
     1.0000   1.0000   1.0000   1.0000   1.0000   1.0000   1.0000   1.0000
     1.0000   1.0000   1.0000   1.0000   1.0000   1.0030   0.0000   0.0000
     0.0000   0.0000

          k = 0.2727 0.5774 0.0000 ( 20103 PWs)   bands (ev):

   -24.2942 -24.1150 -24.0859 -23.9873 -23.8588 -23.8270 -23.6938 -23.6914
   -23.6746 -23.5119 -10.0455  -9.5018  -5.7402  -2.1577  -1.6390   1.1880
     2.2227   2.4705

     occupation numbers 
     1.0000   1.0000   1.0000   1.0000   1.0000   1.0000   1.0000   1.0000
     1.0000   1.0000   1.0000   1.0000   1.0000   0.0569   0.0000   0.0000
     0.0000   0.0000

          k = 0.2727 0.5774 0.0780 ( 20114 PWs)   bands (ev):

   -24.2942 -24.1150 -24.0859 -23.9873 -23.8588 -23.8270 -23.6938 -23.6914
   -23.6746 -23.5119 -10.0455  -9.5018  -5.7402  -2.1577  -1.6390   1.1880
     2.2227   2.4705

     occupation numbers 
     1.0000   1.0000   1.0000   1.0000   1.0000   1.0000   1.0000   1.0000
     1.0000   1.0000   1.0000   1.0000   1.0000   0.0569   0.0000   0.0000
     0.0000   0.0000

     the Fermi energy is    -2.2381 ev

!    total energy              =    -326.39232519 Ry
     estimated scf accuracy    <          6.6E-11 Ry
     smearing contrib. (-TS)   =      -0.00008918 Ry
     internal energy E=F+TS    =    -326.39223601 Ry

     The total energy is F=E-TS. E is the sum of the following terms:
     one-electron contribution =    -882.96174531 Ry
     hartree contribution      =     448.66775748 Ry
     xc contribution           =     -95.07655196 Ry
     ewald contribution        =     202.97830378 Ry

     convergence has been achieved in  10 iterations

     negative rho (up, down):  8.414E-05 0.000E+00

     Forces acting on atoms (cartesian axes, Ry/au):

     atom    1 type  1   force =    -0.00000000    0.00000000    0.00000000
     atom    2 type  1   force =     0.00000000   -0.00000000    0.00000000
     The non-local contrib.  to forces
     atom    1 type  1   force =     0.00000000   -0.00000000    0.00000000
     atom    2 type  1   force =     0.00000000    0.00000000    0.00000000
     The ionic contribution  to forces
     atom    1 type  1   force =    -0.00000003    0.00000002    0.00000000
     atom    2 type  1   force =     0.00000003   -0.00000002    0.00000000
     The local contribution  to forces
     atom    1 type  1   force =    -0.00000000    0.00000041    0.00000000
     atom    2 type  1   force =     0.00000035    0.00000020    0.00000000
     The core correction contribution to forces
     atom    1 type  1   force =    -0.00000000    0.00000004    0.00000000
     atom    2 type  1   force =     0.00000004    0.00000002    0.00000000
     The Hubbard contrib.    to forces
     atom    1 type  1   force =     0.00000000    0.00000000    0.00000000
     atom    2 type  1   force =     0.00000000    0.00000000    0.00000000
     The SCF correction term to forces
     atom    1 type  1   force =    -0.00000000    0.00000000   -0.00000000
     atom    2 type  1   force =     0.00000000    0.00000000   -0.00000000

     Total force =     0.000000     Total SCF correction =     0.000000


     Computing stress (Cartesian axis) and pressure


     negative rho (up, down):  8.414E-05 0.000E+00
          total   stress  (Ry/bohr**3)                   (kbar)     P=        5.25
   0.00005360  -0.00000000   0.00000000            7.88       -0.00        0.00
   0.00000000   0.00005360  -0.00000000            0.00        7.88       -0.00
   0.00000000  -0.00000000  -0.00000019            0.00       -0.00       -0.03

     kinetic stress (kbar)   1596.86      0.00      0.00
                                0.00   1596.86     -0.00
                               -0.00      0.00   1638.14

     local   stress (kbar) -43210.43      0.00      0.00
                                0.00 -43210.43     -0.00
                                0.00     -0.00  44099.21

     nonloc. stress (kbar)    995.94      0.00     -0.00
                                0.00    995.94      0.00
                                0.00      0.00    982.29

     hartree stress (kbar)  22602.32     -0.00     -0.00
                               -0.00  22602.32     -0.00
                               -0.00     -0.00 -19423.42

     exc-cor stress (kbar)   2338.29     -0.00     -0.00
                               -0.00   2338.29      0.00
                               -0.00      0.00   2333.94

     corecor stress (kbar)  -3308.24      0.00      0.00
                                0.00  -3308.24     -0.00
                                0.00     -0.00  -3307.38

     ewald   stress (kbar)  18993.15     -0.00      0.00
                               -0.00  18993.15      0.00
                                0.00      0.00 -26322.81

     hubbard stress (kbar)      0.00      0.00      0.00
                                0.00      0.00      0.00
                                0.00      0.00      0.00

     DFT-D   stress (kbar)      0.00      0.00      0.00
                                0.00      0.00      0.00
                                0.00      0.00      0.00

     XDM     stress (kbar)      0.00      0.00      0.00
                                0.00      0.00      0.00
                                0.00      0.00      0.00

     dft-nl  stress (kbar)      0.00      0.00      0.00
                                0.00      0.00      0.00
                                0.00      0.00      0.00

     TS-vdW  stress (kbar)      0.00      0.00      0.00
                                0.00      0.00      0.00
                                0.00      0.00      0.00



     Writing output data file ../tmp/stanene.save/

     init_run     :      4.68s CPU      4.96s WALL (       1 calls)
     electrons    :    105.88s CPU    110.77s WALL (       1 calls)
     forces       :      2.27s CPU      2.45s WALL (       1 calls)
     stress       :      4.69s CPU      5.00s WALL (       1 calls)

     Called by init_run:
     wfcinit      :      3.28s CPU      3.36s WALL (       1 calls)
     wfcinit:atom :      0.03s CPU      0.03s WALL (      32 calls)
     wfcinit:wfcr :      3.12s CPU      3.20s WALL (      32 calls)
     potinit      :      0.41s CPU      0.44s WALL (       1 calls)
     hinit0       :      0.46s CPU      0.48s WALL (       1 calls)

     Called by electrons:
     c_bands      :     85.83s CPU     87.54s WALL (      10 calls)
     sum_band     :     14.12s CPU     16.34s WALL (      10 calls)
     v_of_rho     :      2.14s CPU      2.33s WALL (      11 calls)
     v_h          :      0.20s CPU      0.20s WALL (      11 calls)
     v_xc         :      2.48s CPU      2.69s WALL (      13 calls)
     newd         :      3.46s CPU      4.33s WALL (      11 calls)
     mix_rho      :      0.43s CPU      0.45s WALL (      10 calls)

     Called by c_bands:
     init_us_2    :      0.78s CPU      0.79s WALL (     736 calls)
     cegterg      :     82.98s CPU     84.66s WALL (     320 calls)

     Called by sum_band:
     sum_band:wei :      0.00s CPU      0.00s WALL (      10 calls)
     sum_band:loo :      9.76s CPU     10.14s WALL (      10 calls)
     sum_band:buf :      0.11s CPU      0.11s WALL (     320 calls)
     sum_band:ini :      0.33s CPU      0.33s WALL (     320 calls)
     sum_band:cal :      1.98s CPU      2.02s WALL (     320 calls)
     sum_band:bec :      0.01s CPU      0.01s WALL (     320 calls)
     addusdens    :      3.43s CPU      5.26s WALL (      10 calls)
     addusd:skk   :      0.01s CPU      0.01s WALL (      10 calls)
     addusd:dgemm :      1.31s CPU      2.88s WALL (      10 calls)
     addusd:qvan2 :      1.74s CPU      1.74s WALL (      10 calls)

     Called by *egterg:
     cdiaghg      :      1.25s CPU      1.27s WALL (    1492 calls)
     cegterg:over :      9.51s CPU      9.57s WALL (    1172 calls)
     cegterg:upda :      4.57s CPU      4.58s WALL (    1172 calls)
     cegterg:last :      9.43s CPU      9.47s WALL (     699 calls)
     cdiaghg:chol :      0.23s CPU      0.24s WALL (    1492 calls)
     cdiaghg:inve :      0.03s CPU      0.03s WALL (    1492 calls)
     cdiaghg:para :      0.19s CPU      0.19s WALL (    2984 calls)
     h_psi        :     52.71s CPU     54.33s WALL (    1524 calls)
     s_psi        :      3.34s CPU      3.36s WALL (    1524 calls)
     g_psi        :      0.29s CPU      0.29s WALL (    1172 calls)

     Called by h_psi:
     h_psi:calbec :      6.28s CPU      6.47s WALL (    1524 calls)
     vloc_psi     :     42.72s CPU     44.10s WALL (    1524 calls)
     add_vuspsi   :      3.51s CPU      3.58s WALL (    1524 calls)

     General routines
     calbec       :      9.96s CPU     10.19s WALL (    2004 calls)
     fft          :      2.91s CPU      3.04s WALL (     166 calls)
     ffts         :      0.07s CPU      0.08s WALL (      21 calls)
     fftw         :     45.76s CPU     47.28s WALL (   37750 calls)
     interpolate  :      0.30s CPU      0.31s WALL (      11 calls)

     Parallel routines
     fft_scatt_xy :      4.17s CPU      4.40s WALL (   37937 calls)
     fft_scatt_yz :     28.17s CPU     28.88s WALL (   37937 calls)

     PWSCF        :   1m57.79s CPU   2m 3.68s WALL


   This run was terminated on:  10:26:28  25Jan2024            

=------------------------------------------------------------------------------=
   JOB DONE.
=------------------------------------------------------------------------------=
