
     Program DOS v.6.7MaX starts on 22Jan2024 at  9:29:24 

     This program is part of the open-source Quantum ESPRESSO suite
     for quantum simulation of materials; please cite
         "P. Giannozzi et al., J. Phys.:Condens. Matter 21 395502 (2009);
         "P. Giannozzi et al., J. Phys.:Condens. Matter 29 465901 (2017);
          URL http://www.quantum-espresso.org", 
     in publications or presentations arising from this work. More details at
     http://www.quantum-espresso.org/quote

     Parallel version (MPI), running on     6 processors

     MPI processes distributed on     1 nodes
     R & G space division:  proc/nbgrp/npool/nimage =       6

     Reading xml data from directory:

     ../tmp/stanene.save/

     IMPORTANT: XC functional enforced from input :
     Exchange-correlation= PBE
                           (   1   4   3   4   0   0   0)
     Any further DFT definition will be discarded
     Please, verify this is what you really want


     Parallelization info
     --------------------
     sticks:   dense  smooth     PW     G-vecs:    dense   smooth      PW
     Min         214     214     60                26776    26776    3950
     Max         215     215     61                26799    26799    3963
     Sum        1285    1285    361               160699   160699   23727


     negative rho (up, down):  3.616E-03 0.000E+00

     Gaussian broadening (read from file): ngauss,degauss=   1    0.020000


     DOS          :      1.56s CPU      2.22s WALL


   This run was terminated on:   9:29:26  22Jan2024            

=------------------------------------------------------------------------------=
   JOB DONE.
=------------------------------------------------------------------------------=
