
     Program PWSCF v.6.7MaX starts on 22Jan2024 at  9:36: 4 

     This program is part of the open-source Quantum ESPRESSO suite
     for quantum simulation of materials; please cite
         "P. Giannozzi et al., J. Phys.:Condens. Matter 21 395502 (2009);
         "P. Giannozzi et al., J. Phys.:Condens. Matter 29 465901 (2017);
          URL http://www.quantum-espresso.org", 
     in publications or presentations arising from this work. More details at
     http://www.quantum-espresso.org/quote

     Parallel version (MPI), running on     6 processors

     MPI processes distributed on     1 nodes
     R & G space division:  proc/nbgrp/npool/nimage =       6
     Waiting for input...
     Reading input from standard input

     Current dimensions of program PWSCF are:
     Max number of different atomic species (ntypx) = 10
     Max number of k-points (npk) =  40000
     Max angular momentum in pseudopotentials (lmaxx) =  3

     Atomic positions and unit cell read from directory:
     ../tmp/stanene.save/
     Atomic positions from file used, from input discarded


     Subspace diagonalization in iterative solution of the eigenvalue problem:
     one sub-group per band group will be used
     scalapack distributed-memory algorithm (size of sub-group:  2*  2 procs)


     Parallelization info
     --------------------
     sticks:   dense  smooth     PW     G-vecs:    dense   smooth      PW
     Min         431     214     61                75773    26776    4007
     Max         432     215     62                75788    26799    4017
     Sum        2587    1285    367               454685   160699   24069



     bravais-lattice index     =            4
     lattice parameter (alat)  =       8.8439  a.u.
     unit-cell volume          =    2560.0529 (a.u.)^3
     number of atoms/cell      =            2
     number of atomic types    =            1
     number of electrons       =        28.00
     number of Kohn-Sham states=           16
     kinetic-energy cutoff     =      60.0000  Ry
     charge density cutoff     =     480.0000  Ry
     Exchange-correlation= SLA  PW   PBE  PBE
                           (   1   4   3   4   0   0   0)

     celldm(1)=   8.843918  celldm(2)=   0.000000  celldm(3)=   4.273504
     celldm(4)=   0.000000  celldm(5)=   0.000000  celldm(6)=   0.000000

     crystal axes: (cart. coord. in units of alat)
               a(1) = (   1.000000   0.000000   0.000000 )  
               a(2) = (  -0.500000   0.866025   0.000000 )  
               a(3) = (   0.000000   0.000000   4.273504 )  

     reciprocal axes: (cart. coord. in units 2 pi/alat)
               b(1) = (  1.000000  0.577350 -0.000000 )  
               b(2) = (  0.000000  1.154701  0.000000 )  
               b(3) = (  0.000000 -0.000000  0.234000 )  


     PseudoPot. # 1 for Sn read from file:
     ../pseudo/Sn_pbe_v1.uspp.F.UPF
     MD5 check sum: 4cf58ce39ec5d5d420df3dd08604eb00
     Pseudo is Ultrasoft + core correction, Zval = 14.0
     Generated by new atomic code, or converted to UPF format
     Using radial grid of  891 points,  6 beta functions with: 
                l(1) =   0
                l(2) =   0
                l(3) =   1
                l(4) =   1
                l(5) =   2
                l(6) =   2
     Q(r) pseudized with  6 coefficients,  rinner =    1.200   1.200   1.200
                                                       1.200   1.200

     atomic species   valence    mass     pseudopotential
        Sn            14.00   118.71000     Sn( 1.00)

      6 Sym. Ops. (no inversion) found



   Cartesian axes

     site n.     atom                  positions (alat units)
         1           Sn  tau(   1) = (   0.0000000   0.5773503   2.1367521  )
         2           Sn  tau(   2) = (   0.5000000   0.2886751   1.9567240  )

     number of k points=   217 (tetrahedron method)

     Number of k-points >= 100: set verbosity='high' to print them.

     Dense  grid:   454685 G-vectors     FFT dimensions: (  64,  64, 270)

     Smooth grid:   160699 G-vectors     FFT dimensions: (  45,  45, 192)

     Estimated max dynamical RAM per process >     244.54 MB

     Estimated total dynamical RAM >       1.43 GB

     The potential is recalculated from file :
     ../tmp/stanene.save/charge-density


     negative rho (up, down):  3.628E-03 0.000E+00
     Starting wfcs are   18 randomized atomic wfcs

     Band Structure Calculation
     Davidson diagonalization with overlap

     ethr =  3.57E-09,  avg # of iterations = 19.2

     total cpu time spent up to now is      189.2 secs

     End of band structure calculation

     Number of k-points >= 100: set verbosity='high' to print the bands.

     the Fermi energy is    -2.1246 ev
     (compare with:    -2.1956 eV, computed in scf)

     Writing output data file ../tmp/stanene.save/

     init_run     :      1.18s CPU      1.49s WALL (       1 calls)
     electrons    :    182.33s CPU    187.54s WALL (       1 calls)

     Called by init_run:
     wfcinit      :      0.00s CPU      0.00s WALL (       1 calls)
     potinit      :      0.22s CPU      0.29s WALL (       1 calls)
     hinit0       :      0.42s CPU      0.43s WALL (       1 calls)

     Called by electrons:
     c_bands      :    182.28s CPU    187.49s WALL (       1 calls)
     v_of_rho     :      0.18s CPU      0.25s WALL (       1 calls)
     newd         :      0.37s CPU      0.56s WALL (       1 calls)

     Called by c_bands:
     init_us_2    :      0.20s CPU      0.22s WALL (     217 calls)
     cegterg      :    166.34s CPU    170.97s WALL (     298 calls)

     Called by *egterg:
     cdiaghg      :      2.80s CPU      2.84s WALL (    4384 calls)
     h_psi        :    105.21s CPU    109.84s WALL (    4682 calls)
     s_psi        :      7.53s CPU      7.60s WALL (    4682 calls)
     g_psi        :      0.85s CPU      0.85s WALL (    4167 calls)

     Called by h_psi:
     h_psi:calbec :     12.97s CPU     13.47s WALL (    4682 calls)
     vloc_psi     :     84.10s CPU     88.05s WALL (    4682 calls)
     add_vuspsi   :      7.74s CPU      7.91s WALL (    4682 calls)

     General routines
     calbec       :     12.95s CPU     13.46s WALL (    4682 calls)
     fft          :      0.16s CPU      0.19s WALL (      13 calls)
     ffts         :      0.00s CPU      0.00s WALL (       1 calls)
     fftw         :     76.09s CPU     79.61s WALL (   77778 calls)
     interpolate  :      0.02s CPU      0.02s WALL (       1 calls)
     davcio       :      0.11s CPU      0.19s WALL (     434 calls)

     Parallel routines
     fft_scatt_xy :      6.86s CPU      7.30s WALL (   77792 calls)
     fft_scatt_yz :     39.13s CPU     40.64s WALL (   77792 calls)

     PWSCF        :   3m 4.26s CPU   3m11.42s WALL


   This run was terminated on:   9:39:16  22Jan2024            

=------------------------------------------------------------------------------=
   JOB DONE.
=------------------------------------------------------------------------------=
