
     Program PWSCF v.7.2 starts on 26Jun2024 at 17:39: 0 

     This program is part of the open-source Quantum ESPRESSO suite
     for quantum simulation of materials; please cite
         "P. Giannozzi et al., J. Phys.:Condens. Matter 21 395502 (2009);
         "P. Giannozzi et al., J. Phys.:Condens. Matter 29 465901 (2017);
         "P. Giannozzi et al., J. Chem. Phys. 152 154105 (2020);
          URL http://www.quantum-espresso.org", 
     in publications or presentations arising from this work. More details at
     http://www.quantum-espresso.org/quote

     Parallel version (MPI), running on     6 processors

     MPI processes distributed on     1 nodes
     5938 MiB available memory on the printing compute node when the environment starts

     Waiting for input...
     Reading input from standard input

     Current dimensions of program PWSCF are:
     Max number of different atomic species (ntypx) = 10
     Max number of k-points (npk) =  40000
     Max angular momentum in pseudopotentials (lmaxx) =  4

     R & G space division:  proc/nbgrp/npool/nimage =       6
     Subspace diagonalization in iterative solution of the eigenvalue problem:
     a serial algorithm will be used


     Parallelization info
     --------------------
     sticks:   dense  smooth     PW     G-vecs:    dense   smooth      PW
     Min         431     214     61                75909    26818    4015
     Max         432     215     62                75924    26841    4025
     Sum        2587    1285    367               455489   160939   24117

     Using Slab Decomposition



     bravais-lattice index     =            4
     lattice parameter (alat)  =       8.8506  a.u.
     unit-cell volume          =    2563.9136 (a.u.)^3
     number of atoms/cell      =            2
     number of atomic types    =            1
     number of electrons       =        28.00
     number of Kohn-Sham states=           18
     kinetic-energy cutoff     =      60.0000  Ry
     charge density cutoff     =     480.0000  Ry
     scf convergence threshold =      1.0E-07
     mixing beta               =       0.7000
     number of iterations used =            8  plain     mixing
     Exchange-correlation= SLA  PW   PBE  PBE
                           (   1   4   3   4   0   0   0)

     celldm(1)=   8.850584  celldm(2)=   0.000000  celldm(3)=   4.270286
     celldm(4)=   0.000000  celldm(5)=   0.000000  celldm(6)=   0.000000

     crystal axes: (cart. coord. in units of alat)
               a(1) = (   1.000000   0.000000   0.000000 )  
               a(2) = (  -0.500000   0.866025   0.000000 )  
               a(3) = (   0.000000   0.000000   4.270286 )  

     reciprocal axes: (cart. coord. in units 2 pi/alat)
               b(1) = (  1.000000  0.577350 -0.000000 )  
               b(2) = (  0.000000  1.154701  0.000000 )  
               b(3) = (  0.000000 -0.000000  0.234176 )  


     PseudoPot. # 1 for Sn read from file:
     ../pseudo/Sn_pbe_v1.uspp.F.UPF
     MD5 check sum: 4cf58ce39ec5d5d420df3dd08604eb00
     Pseudo is Ultrasoft + core correction, Zval = 14.0
     Generated by new atomic code, or converted to UPF format
     Using radial grid of  891 points,  6 beta functions with: 
                l(1) =   0
                l(2) =   0
                l(3) =   1
                l(4) =   1
                l(5) =   2
                l(6) =   2
     Q(r) pseudized with  6 coefficients,  rinner =    1.200   1.200   1.200
                                                       1.200   1.200

     atomic species   valence    mass     pseudopotential
        Sn            14.00   118.71000     Sn( 1.00)

     24 Sym. Ops., with inversion, found


                                    s                        frac. trans.

      isym =  1     identity                                     

 cryst.   s( 1) = (     1          0          0      )
                  (     0          1          0      )
                  (     0          0          1      )

 cart.    s( 1) = (  1.0000000  0.0000000  0.0000000 )
                  (  0.0000000  1.0000000  0.0000000 )
                  (  0.0000000  0.0000000  1.0000000 )


      isym =  2     180 deg rotation - cart. axis [0,0,1]        

 cryst.   s( 2) = (    -1          0          0      )
                  (     0         -1          0      )
                  (     0          0          1      )

 cart.    s( 2) = ( -1.0000000  0.0000000  0.0000000 )
                  (  0.0000000 -1.0000000  0.0000000 )
                  (  0.0000000  0.0000000  1.0000000 )


      isym =  3     180 deg rotation - cart. axis [0,1,0]        

 cryst.   s( 3) = (    -1          0          0      )
                  (     1          1          0      )
                  (     0          0         -1      )

 cart.    s( 3) = ( -1.0000000  0.0000000  0.0000000 )
                  (  0.0000000  1.0000000  0.0000000 )
                  (  0.0000000  0.0000000 -1.0000000 )


      isym =  4     180 deg rotation - cart. axis [1,0,0]        

 cryst.   s( 4) = (     1          0          0      )
                  (    -1         -1          0      )
                  (     0          0         -1      )

 cart.    s( 4) = (  1.0000000  0.0000000  0.0000000 )
                  (  0.0000000 -1.0000000  0.0000000 )
                  (  0.0000000  0.0000000 -1.0000000 )


      isym =  5      60 deg rotation - cryst. axis [0,0,1]       

 cryst.   s( 5) = (     1          1          0      )
                  (    -1          0          0      )
                  (     0          0          1      )

 cart.    s( 5) = (  0.5000000 -0.8660254  0.0000000 )
                  (  0.8660254  0.5000000  0.0000000 )
                  (  0.0000000  0.0000000  1.0000000 )


      isym =  6      60 deg rotation - cryst. axis [0,0,-1]      

 cryst.   s( 6) = (     0         -1          0      )
                  (     1          1          0      )
                  (     0          0          1      )

 cart.    s( 6) = (  0.5000000  0.8660254  0.0000000 )
                  ( -0.8660254  0.5000000  0.0000000 )
                  (  0.0000000  0.0000000  1.0000000 )


      isym =  7     120 deg rotation - cryst. axis [0,0,1]       

 cryst.   s( 7) = (     0          1          0      )
                  (    -1         -1          0      )
                  (     0          0          1      )

 cart.    s( 7) = ( -0.5000000 -0.8660254  0.0000000 )
                  (  0.8660254 -0.5000000  0.0000000 )
                  (  0.0000000  0.0000000  1.0000000 )


      isym =  8     120 deg rotation - cryst. axis [0,0,-1]      

 cryst.   s( 8) = (    -1         -1          0      )
                  (     1          0          0      )
                  (     0          0          1      )

 cart.    s( 8) = ( -0.5000000  0.8660254  0.0000000 )
                  ( -0.8660254 -0.5000000  0.0000000 )
                  (  0.0000000  0.0000000  1.0000000 )


      isym =  9     180 deg rotation - cryst. axis [1,-1,0]      

 cryst.   s( 9) = (     0         -1          0      )
                  (    -1          0          0      )
                  (     0          0         -1      )

 cart.    s( 9) = (  0.5000000 -0.8660254  0.0000000 )
                  ( -0.8660254 -0.5000000  0.0000000 )
                  (  0.0000000  0.0000000 -1.0000000 )


      isym = 10     180 deg rotation - cryst. axis [2,1,0]       

 cryst.   s(10) = (     1          1          0      )
                  (     0         -1          0      )
                  (     0          0         -1      )

 cart.    s(10) = (  0.5000000  0.8660254  0.0000000 )
                  (  0.8660254 -0.5000000  0.0000000 )
                  (  0.0000000  0.0000000 -1.0000000 )


      isym = 11     180 deg rotation - cryst. axis [0,1,0]       

 cryst.   s(11) = (    -1         -1          0      )
                  (     0          1          0      )
                  (     0          0         -1      )

 cart.    s(11) = ( -0.5000000 -0.8660254  0.0000000 )
                  ( -0.8660254  0.5000000  0.0000000 )
                  (  0.0000000  0.0000000 -1.0000000 )


      isym = 12     180 deg rotation - cryst. axis [1,1,0]       

 cryst.   s(12) = (     0          1          0      )
                  (     1          0          0      )
                  (     0          0         -1      )

 cart.    s(12) = ( -0.5000000  0.8660254  0.0000000 )
                  (  0.8660254  0.5000000  0.0000000 )
                  (  0.0000000  0.0000000 -1.0000000 )


      isym = 13     inversion                                    

 cryst.   s(13) = (    -1          0          0      )
                  (     0         -1          0      )
                  (     0          0         -1      )

 cart.    s(13) = ( -1.0000000  0.0000000  0.0000000 )
                  (  0.0000000 -1.0000000  0.0000000 )
                  (  0.0000000  0.0000000 -1.0000000 )


      isym = 14     inv. 180 deg rotation - cart. axis [0,0,1]   

 cryst.   s(14) = (     1          0          0      )
                  (     0          1          0      )
                  (     0          0         -1      )

 cart.    s(14) = (  1.0000000  0.0000000  0.0000000 )
                  (  0.0000000  1.0000000  0.0000000 )
                  (  0.0000000  0.0000000 -1.0000000 )


      isym = 15     inv. 180 deg rotation - cart. axis [0,1,0]   

 cryst.   s(15) = (     1          0          0      )
                  (    -1         -1          0      )
                  (     0          0          1      )

 cart.    s(15) = (  1.0000000  0.0000000  0.0000000 )
                  (  0.0000000 -1.0000000  0.0000000 )
                  (  0.0000000  0.0000000  1.0000000 )


      isym = 16     inv. 180 deg rotation - cart. axis [1,0,0]   

 cryst.   s(16) = (    -1          0          0      )
                  (     1          1          0      )
                  (     0          0          1      )

 cart.    s(16) = ( -1.0000000  0.0000000  0.0000000 )
                  (  0.0000000  1.0000000  0.0000000 )
                  (  0.0000000  0.0000000  1.0000000 )


      isym = 17     inv.  60 deg rotation - cryst. axis [0,0,1]  

 cryst.   s(17) = (    -1         -1          0      )
                  (     1          0          0      )
                  (     0          0         -1      )

 cart.    s(17) = ( -0.5000000  0.8660254  0.0000000 )
                  ( -0.8660254 -0.5000000  0.0000000 )
                  (  0.0000000  0.0000000 -1.0000000 )


      isym = 18     inv.  60 deg rotation - cryst. axis [0,0,-1] 

 cryst.   s(18) = (     0          1          0      )
                  (    -1         -1          0      )
                  (     0          0         -1      )

 cart.    s(18) = ( -0.5000000 -0.8660254  0.0000000 )
                  (  0.8660254 -0.5000000  0.0000000 )
                  (  0.0000000  0.0000000 -1.0000000 )


      isym = 19     inv. 120 deg rotation - cryst. axis [0,0,1]  

 cryst.   s(19) = (     0         -1          0      )
                  (     1          1          0      )
                  (     0          0         -1      )

 cart.    s(19) = (  0.5000000  0.8660254  0.0000000 )
                  ( -0.8660254  0.5000000  0.0000000 )
                  (  0.0000000  0.0000000 -1.0000000 )


      isym = 20     inv. 120 deg rotation - cryst. axis [0,0,-1] 

 cryst.   s(20) = (     1          1          0      )
                  (    -1          0          0      )
                  (     0          0         -1      )

 cart.    s(20) = (  0.5000000 -0.8660254  0.0000000 )
                  (  0.8660254  0.5000000  0.0000000 )
                  (  0.0000000  0.0000000 -1.0000000 )


      isym = 21     inv. 180 deg rotation - cryst. axis [1,-1,0] 

 cryst.   s(21) = (     0          1          0      )
                  (     1          0          0      )
                  (     0          0          1      )

 cart.    s(21) = ( -0.5000000  0.8660254  0.0000000 )
                  (  0.8660254  0.5000000  0.0000000 )
                  (  0.0000000  0.0000000  1.0000000 )


      isym = 22     inv. 180 deg rotation - cryst. axis [2,1,0]  

 cryst.   s(22) = (    -1         -1          0      )
                  (     0          1          0      )
                  (     0          0          1      )

 cart.    s(22) = ( -0.5000000 -0.8660254  0.0000000 )
                  ( -0.8660254  0.5000000  0.0000000 )
                  (  0.0000000  0.0000000  1.0000000 )


      isym = 23     inv. 180 deg rotation - cryst. axis [0,1,0]  

 cryst.   s(23) = (     1          1          0      )
                  (     0         -1          0      )
                  (     0          0          1      )

 cart.    s(23) = (  0.5000000  0.8660254  0.0000000 )
                  (  0.8660254 -0.5000000  0.0000000 )
                  (  0.0000000  0.0000000  1.0000000 )


      isym = 24     inv. 180 deg rotation - cryst. axis [1,1,0]  

 cryst.   s(24) = (     0         -1          0      )
                  (    -1          0          0      )
                  (     0          0          1      )

 cart.    s(24) = (  0.5000000 -0.8660254  0.0000000 )
                  ( -0.8660254 -0.5000000  0.0000000 )
                  (  0.0000000  0.0000000  1.0000000 )


     point group D_6h(6/mmm)
     there are 12 classes
     the character table:

       E     2C6   2C3   C2    3C2'  3C2'' i     2S3   2S6   s_h   3s_d  3s_v 
A_1g   1.00  1.00  1.00  1.00  1.00  1.00  1.00  1.00  1.00  1.00  1.00  1.00
A_2g   1.00  1.00  1.00  1.00 -1.00 -1.00  1.00  1.00  1.00  1.00 -1.00 -1.00
B_1g   1.00 -1.00  1.00 -1.00  1.00 -1.00  1.00 -1.00  1.00 -1.00  1.00 -1.00
B_2g   1.00 -1.00  1.00 -1.00 -1.00  1.00  1.00 -1.00  1.00 -1.00 -1.00  1.00
E_1g   2.00  1.00 -1.00 -2.00  0.00  0.00  2.00  1.00 -1.00 -2.00  0.00  0.00
E_2g   2.00 -1.00 -1.00  2.00  0.00  0.00  2.00 -1.00 -1.00  2.00  0.00  0.00
A_1u   1.00  1.00  1.00  1.00  1.00  1.00 -1.00 -1.00 -1.00 -1.00 -1.00 -1.00
A_2u   1.00  1.00  1.00  1.00 -1.00 -1.00 -1.00 -1.00 -1.00 -1.00  1.00  1.00
B_1u   1.00 -1.00  1.00 -1.00  1.00 -1.00 -1.00  1.00 -1.00  1.00 -1.00  1.00
B_2u   1.00 -1.00  1.00 -1.00 -1.00  1.00 -1.00  1.00 -1.00  1.00  1.00 -1.00
E_1u   2.00  1.00 -1.00 -2.00  0.00  0.00 -2.00 -1.00  1.00  2.00  0.00  0.00
E_2u   2.00 -1.00 -1.00  2.00  0.00  0.00 -2.00  1.00  1.00 -2.00  0.00  0.00

     the symmetry operations in each class and the name of the first element:

     E        1
          identity                                               
     2C6      5    6
           60 deg rotation - cryst. axis [0,0,1]                 
     2C3      7    8
          120 deg rotation - cryst. axis [0,0,1]                 
     C2       2
          180 deg rotation - cart. axis [0,0,1]                  
     3C2'     4   12   11
          180 deg rotation - cart. axis [1,0,0]                  
     3C2''    3    9   10
          180 deg rotation - cart. axis [0,1,0]                  
     i       13
          inversion                                              
     2S3     17   18
          inv.  60 deg rotation - cryst. axis [0,0,1]            
     2S6     19   20
          inv. 120 deg rotation - cryst. axis [0,0,1]            
     s_h     14
          inv. 180 deg rotation - cart. axis [0,0,1]             
     3s_d    16   24   23
          inv. 180 deg rotation - cart. axis [1,0,0]             
     3s_v    15   21   22
          inv. 180 deg rotation - cart. axis [0,1,0]             

   Cartesian axes

     site n.     atom                  positions (alat units)
         1           Sn  tau(   1) = (   0.0000000   0.5773503   2.1351428  )
         2           Sn  tau(   2) = (   0.5000000   0.2886751   2.1351428  )

   Crystallographic axes

     site n.     atom                  positions (cryst. coord.)
         1           Sn  tau(   1) = (  0.3333333  0.6666667  0.5000000  )
         2           Sn  tau(   2) = (  0.6666667  0.3333333  0.5000000  )

     number of k points=   217  Methfessel-Paxton smearing, width (Ry)=  0.0200
                       cart. coord. in units 2pi/alat
        k(    1) = (   0.0000000   0.0000000   0.0000000), wk =   0.0008681
        k(    2) = (   0.0000000   0.0240563   0.0000000), wk =   0.0052083
        k(    3) = (   0.0000000   0.0481125   0.0000000), wk =   0.0052083
        k(    4) = (   0.0000000   0.0721688   0.0000000), wk =   0.0052083
        k(    5) = (   0.0000000   0.0962250   0.0000000), wk =   0.0052083
        k(    6) = (   0.0000000   0.1202813   0.0000000), wk =   0.0052083
        k(    7) = (   0.0000000   0.1443376   0.0000000), wk =   0.0052083
        k(    8) = (   0.0000000   0.1683938   0.0000000), wk =   0.0052083
        k(    9) = (   0.0000000   0.1924501   0.0000000), wk =   0.0052083
        k(   10) = (   0.0000000   0.2165064   0.0000000), wk =   0.0052083
        k(   11) = (   0.0000000   0.2405626   0.0000000), wk =   0.0052083
        k(   12) = (   0.0000000   0.2646189   0.0000000), wk =   0.0052083
        k(   13) = (   0.0000000   0.2886751   0.0000000), wk =   0.0052083
        k(   14) = (   0.0000000   0.3127314   0.0000000), wk =   0.0052083
        k(   15) = (   0.0000000   0.3367877   0.0000000), wk =   0.0052083
        k(   16) = (   0.0000000   0.3608439   0.0000000), wk =   0.0052083
        k(   17) = (   0.0000000   0.3849002   0.0000000), wk =   0.0052083
        k(   18) = (   0.0000000   0.4089564   0.0000000), wk =   0.0052083
        k(   19) = (   0.0000000   0.4330127   0.0000000), wk =   0.0052083
        k(   20) = (   0.0000000   0.4570690   0.0000000), wk =   0.0052083
        k(   21) = (   0.0000000   0.4811252   0.0000000), wk =   0.0052083
        k(   22) = (   0.0000000   0.5051815   0.0000000), wk =   0.0052083
        k(   23) = (   0.0000000   0.5292377   0.0000000), wk =   0.0052083
        k(   24) = (   0.0000000   0.5532940   0.0000000), wk =   0.0052083
        k(   25) = (   0.0000000  -0.5773503   0.0000000), wk =   0.0026042
        k(   26) = (   0.0208333   0.0360844   0.0000000), wk =   0.0052083
        k(   27) = (   0.0208333   0.0601407   0.0000000), wk =   0.0104167
        k(   28) = (   0.0208333   0.0841969   0.0000000), wk =   0.0104167
        k(   29) = (   0.0208333   0.1082532   0.0000000), wk =   0.0104167
        k(   30) = (   0.0208333   0.1323094   0.0000000), wk =   0.0104167
        k(   31) = (   0.0208333   0.1563657   0.0000000), wk =   0.0104167
        k(   32) = (   0.0208333   0.1804220   0.0000000), wk =   0.0104167
        k(   33) = (   0.0208333   0.2044782   0.0000000), wk =   0.0104167
        k(   34) = (   0.0208333   0.2285345   0.0000000), wk =   0.0104167
        k(   35) = (   0.0208333   0.2525907   0.0000000), wk =   0.0104167
        k(   36) = (   0.0208333   0.2766470   0.0000000), wk =   0.0104167
        k(   37) = (   0.0208333   0.3007033   0.0000000), wk =   0.0104167
        k(   38) = (   0.0208333   0.3247595   0.0000000), wk =   0.0104167
        k(   39) = (   0.0208333   0.3488158   0.0000000), wk =   0.0104167
        k(   40) = (   0.0208333   0.3728720   0.0000000), wk =   0.0104167
        k(   41) = (   0.0208333   0.3969283   0.0000000), wk =   0.0104167
        k(   42) = (   0.0208333   0.4209846   0.0000000), wk =   0.0104167
        k(   43) = (   0.0208333   0.4450408   0.0000000), wk =   0.0104167
        k(   44) = (   0.0208333   0.4690971   0.0000000), wk =   0.0104167
        k(   45) = (   0.0208333   0.4931534   0.0000000), wk =   0.0104167
        k(   46) = (   0.0208333   0.5172096   0.0000000), wk =   0.0104167
        k(   47) = (   0.0208333   0.5412659   0.0000000), wk =   0.0104167
        k(   48) = (   0.0208333   0.5653221   0.0000000), wk =   0.0104167
        k(   49) = (   0.0416667   0.0721688   0.0000000), wk =   0.0052083
        k(   50) = (   0.0416667   0.0962250   0.0000000), wk =   0.0104167
        k(   51) = (   0.0416667   0.1202813   0.0000000), wk =   0.0104167
        k(   52) = (   0.0416667   0.1443376   0.0000000), wk =   0.0104167
        k(   53) = (   0.0416667   0.1683938   0.0000000), wk =   0.0104167
        k(   54) = (   0.0416667   0.1924501   0.0000000), wk =   0.0104167
        k(   55) = (   0.0416667   0.2165064   0.0000000), wk =   0.0104167
        k(   56) = (   0.0416667   0.2405626   0.0000000), wk =   0.0104167
        k(   57) = (   0.0416667   0.2646189   0.0000000), wk =   0.0104167
        k(   58) = (   0.0416667   0.2886751   0.0000000), wk =   0.0104167
        k(   59) = (   0.0416667   0.3127314   0.0000000), wk =   0.0104167
        k(   60) = (   0.0416667   0.3367877   0.0000000), wk =   0.0104167
        k(   61) = (   0.0416667   0.3608439   0.0000000), wk =   0.0104167
        k(   62) = (   0.0416667   0.3849002   0.0000000), wk =   0.0104167
        k(   63) = (   0.0416667   0.4089564   0.0000000), wk =   0.0104167
        k(   64) = (   0.0416667   0.4330127   0.0000000), wk =   0.0104167
        k(   65) = (   0.0416667   0.4570690   0.0000000), wk =   0.0104167
        k(   66) = (   0.0416667   0.4811252   0.0000000), wk =   0.0104167
        k(   67) = (   0.0416667   0.5051815   0.0000000), wk =   0.0104167
        k(   68) = (   0.0416667   0.5292377   0.0000000), wk =   0.0104167
        k(   69) = (   0.0416667   0.5532940   0.0000000), wk =   0.0104167
        k(   70) = (   0.0416667   0.5773503   0.0000000), wk =   0.0052083
        k(   71) = (   0.0625000   0.1082532   0.0000000), wk =   0.0052083
        k(   72) = (   0.0625000   0.1323094   0.0000000), wk =   0.0104167
        k(   73) = (   0.0625000   0.1563657   0.0000000), wk =   0.0104167
        k(   74) = (   0.0625000   0.1804220   0.0000000), wk =   0.0104167
        k(   75) = (   0.0625000   0.2044782   0.0000000), wk =   0.0104167
        k(   76) = (   0.0625000   0.2285345   0.0000000), wk =   0.0104167
        k(   77) = (   0.0625000   0.2525907   0.0000000), wk =   0.0104167
        k(   78) = (   0.0625000   0.2766470   0.0000000), wk =   0.0104167
        k(   79) = (   0.0625000   0.3007033   0.0000000), wk =   0.0104167
        k(   80) = (   0.0625000   0.3247595   0.0000000), wk =   0.0104167
        k(   81) = (   0.0625000   0.3488158   0.0000000), wk =   0.0104167
        k(   82) = (   0.0625000   0.3728720   0.0000000), wk =   0.0104167
        k(   83) = (   0.0625000   0.3969283   0.0000000), wk =   0.0104167
        k(   84) = (   0.0625000   0.4209846   0.0000000), wk =   0.0104167
        k(   85) = (   0.0625000   0.4450408   0.0000000), wk =   0.0104167
        k(   86) = (   0.0625000   0.4690971   0.0000000), wk =   0.0104167
        k(   87) = (   0.0625000   0.4931534   0.0000000), wk =   0.0104167
        k(   88) = (   0.0625000   0.5172096   0.0000000), wk =   0.0104167
        k(   89) = (   0.0625000   0.5412659   0.0000000), wk =   0.0104167
        k(   90) = (   0.0625000   0.5653221   0.0000000), wk =   0.0104167
        k(   91) = (   0.0833333   0.1443376   0.0000000), wk =   0.0052083
        k(   92) = (   0.0833333   0.1683938   0.0000000), wk =   0.0104167
        k(   93) = (   0.0833333   0.1924501   0.0000000), wk =   0.0104167
        k(   94) = (   0.0833333   0.2165064   0.0000000), wk =   0.0104167
        k(   95) = (   0.0833333   0.2405626   0.0000000), wk =   0.0104167
        k(   96) = (   0.0833333   0.2646189   0.0000000), wk =   0.0104167
        k(   97) = (   0.0833333   0.2886751   0.0000000), wk =   0.0104167
        k(   98) = (   0.0833333   0.3127314   0.0000000), wk =   0.0104167
        k(   99) = (   0.0833333   0.3367877   0.0000000), wk =   0.0104167
        k(  100) = (   0.0833333   0.3608439   0.0000000), wk =   0.0104167
        k(  101) = (   0.0833333   0.3849002   0.0000000), wk =   0.0104167
        k(  102) = (   0.0833333   0.4089564   0.0000000), wk =   0.0104167
        k(  103) = (   0.0833333   0.4330127   0.0000000), wk =   0.0104167
        k(  104) = (   0.0833333   0.4570690   0.0000000), wk =   0.0104167
        k(  105) = (   0.0833333   0.4811252   0.0000000), wk =   0.0104167
        k(  106) = (   0.0833333   0.5051815   0.0000000), wk =   0.0104167
        k(  107) = (   0.0833333   0.5292377   0.0000000), wk =   0.0104167
        k(  108) = (   0.0833333   0.5532940   0.0000000), wk =   0.0104167
        k(  109) = (   0.0833333   0.5773503   0.0000000), wk =   0.0052083
        k(  110) = (   0.1041667   0.1804220   0.0000000), wk =   0.0052083
        k(  111) = (   0.1041667   0.2044782   0.0000000), wk =   0.0104167
        k(  112) = (   0.1041667   0.2285345   0.0000000), wk =   0.0104167
        k(  113) = (   0.1041667   0.2525907   0.0000000), wk =   0.0104167
        k(  114) = (   0.1041667   0.2766470   0.0000000), wk =   0.0104167
        k(  115) = (   0.1041667   0.3007033   0.0000000), wk =   0.0104167
        k(  116) = (   0.1041667   0.3247595   0.0000000), wk =   0.0104167
        k(  117) = (   0.1041667   0.3488158   0.0000000), wk =   0.0104167
        k(  118) = (   0.1041667   0.3728720   0.0000000), wk =   0.0104167
        k(  119) = (   0.1041667   0.3969283   0.0000000), wk =   0.0104167
        k(  120) = (   0.1041667   0.4209846   0.0000000), wk =   0.0104167
        k(  121) = (   0.1041667   0.4450408   0.0000000), wk =   0.0104167
        k(  122) = (   0.1041667   0.4690971   0.0000000), wk =   0.0104167
        k(  123) = (   0.1041667   0.4931534   0.0000000), wk =   0.0104167
        k(  124) = (   0.1041667   0.5172096   0.0000000), wk =   0.0104167
        k(  125) = (   0.1041667   0.5412659   0.0000000), wk =   0.0104167
        k(  126) = (   0.1041667   0.5653221   0.0000000), wk =   0.0104167
        k(  127) = (   0.1250000   0.2165064   0.0000000), wk =   0.0052083
        k(  128) = (   0.1250000   0.2405626   0.0000000), wk =   0.0104167
        k(  129) = (   0.1250000   0.2646189   0.0000000), wk =   0.0104167
        k(  130) = (   0.1250000   0.2886751   0.0000000), wk =   0.0104167
        k(  131) = (   0.1250000   0.3127314   0.0000000), wk =   0.0104167
        k(  132) = (   0.1250000   0.3367877   0.0000000), wk =   0.0104167
        k(  133) = (   0.1250000   0.3608439   0.0000000), wk =   0.0104167
        k(  134) = (   0.1250000   0.3849002   0.0000000), wk =   0.0104167
        k(  135) = (   0.1250000   0.4089564   0.0000000), wk =   0.0104167
        k(  136) = (   0.1250000   0.4330127   0.0000000), wk =   0.0104167
        k(  137) = (   0.1250000   0.4570690   0.0000000), wk =   0.0104167
        k(  138) = (   0.1250000   0.4811252   0.0000000), wk =   0.0104167
        k(  139) = (   0.1250000   0.5051815   0.0000000), wk =   0.0104167
        k(  140) = (   0.1250000   0.5292377   0.0000000), wk =   0.0104167
        k(  141) = (   0.1250000   0.5532940   0.0000000), wk =   0.0104167
        k(  142) = (   0.1250000   0.5773503   0.0000000), wk =   0.0052083
        k(  143) = (   0.1458333   0.2525907   0.0000000), wk =   0.0052083
        k(  144) = (   0.1458333   0.2766470   0.0000000), wk =   0.0104167
        k(  145) = (   0.1458333   0.3007033   0.0000000), wk =   0.0104167
        k(  146) = (   0.1458333   0.3247595   0.0000000), wk =   0.0104167
        k(  147) = (   0.1458333   0.3488158   0.0000000), wk =   0.0104167
        k(  148) = (   0.1458333   0.3728720   0.0000000), wk =   0.0104167
        k(  149) = (   0.1458333   0.3969283   0.0000000), wk =   0.0104167
        k(  150) = (   0.1458333   0.4209846   0.0000000), wk =   0.0104167
        k(  151) = (   0.1458333   0.4450408   0.0000000), wk =   0.0104167
        k(  152) = (   0.1458333   0.4690971   0.0000000), wk =   0.0104167
        k(  153) = (   0.1458333   0.4931534   0.0000000), wk =   0.0104167
        k(  154) = (   0.1458333   0.5172096   0.0000000), wk =   0.0104167
        k(  155) = (   0.1458333   0.5412659   0.0000000), wk =   0.0104167
        k(  156) = (   0.1458333   0.5653221   0.0000000), wk =   0.0104167
        k(  157) = (   0.1666667   0.2886751   0.0000000), wk =   0.0052083
        k(  158) = (   0.1666667   0.3127314   0.0000000), wk =   0.0104167
        k(  159) = (   0.1666667   0.3367877   0.0000000), wk =   0.0104167
        k(  160) = (   0.1666667   0.3608439   0.0000000), wk =   0.0104167
        k(  161) = (   0.1666667   0.3849002   0.0000000), wk =   0.0104167
        k(  162) = (   0.1666667   0.4089564   0.0000000), wk =   0.0104167
        k(  163) = (   0.1666667   0.4330127   0.0000000), wk =   0.0104167
        k(  164) = (   0.1666667   0.4570690   0.0000000), wk =   0.0104167
        k(  165) = (   0.1666667   0.4811252   0.0000000), wk =   0.0104167
        k(  166) = (   0.1666667   0.5051815   0.0000000), wk =   0.0104167
        k(  167) = (   0.1666667   0.5292377   0.0000000), wk =   0.0104167
        k(  168) = (   0.1666667   0.5532940   0.0000000), wk =   0.0104167
        k(  169) = (   0.1666667   0.5773503   0.0000000), wk =   0.0052083
        k(  170) = (   0.1875000   0.3247595   0.0000000), wk =   0.0052083
        k(  171) = (   0.1875000   0.3488158   0.0000000), wk =   0.0104167
        k(  172) = (   0.1875000   0.3728720   0.0000000), wk =   0.0104167
        k(  173) = (   0.1875000   0.3969283   0.0000000), wk =   0.0104167
        k(  174) = (   0.1875000   0.4209846   0.0000000), wk =   0.0104167
        k(  175) = (   0.1875000   0.4450408   0.0000000), wk =   0.0104167
        k(  176) = (   0.1875000   0.4690971   0.0000000), wk =   0.0104167
        k(  177) = (   0.1875000   0.4931534   0.0000000), wk =   0.0104167
        k(  178) = (   0.1875000   0.5172096   0.0000000), wk =   0.0104167
        k(  179) = (   0.1875000   0.5412659   0.0000000), wk =   0.0104167
        k(  180) = (   0.1875000   0.5653221   0.0000000), wk =   0.0104167
        k(  181) = (   0.2083333   0.3608439   0.0000000), wk =   0.0052083
        k(  182) = (   0.2083333   0.3849002   0.0000000), wk =   0.0104167
        k(  183) = (   0.2083333   0.4089564   0.0000000), wk =   0.0104167
        k(  184) = (   0.2083333   0.4330127   0.0000000), wk =   0.0104167
        k(  185) = (   0.2083333   0.4570690   0.0000000), wk =   0.0104167
        k(  186) = (   0.2083333   0.4811252   0.0000000), wk =   0.0104167
        k(  187) = (   0.2083333   0.5051815   0.0000000), wk =   0.0104167
        k(  188) = (   0.2083333   0.5292377   0.0000000), wk =   0.0104167
        k(  189) = (   0.2083333   0.5532940   0.0000000), wk =   0.0104167
        k(  190) = (   0.2083333   0.5773503   0.0000000), wk =   0.0052083
        k(  191) = (   0.2291667   0.3969283   0.0000000), wk =   0.0052083
        k(  192) = (   0.2291667   0.4209846   0.0000000), wk =   0.0104167
        k(  193) = (   0.2291667   0.4450408   0.0000000), wk =   0.0104167
        k(  194) = (   0.2291667   0.4690971   0.0000000), wk =   0.0104167
        k(  195) = (   0.2291667   0.4931534   0.0000000), wk =   0.0104167
        k(  196) = (   0.2291667   0.5172096   0.0000000), wk =   0.0104167
        k(  197) = (   0.2291667   0.5412659   0.0000000), wk =   0.0104167
        k(  198) = (   0.2291667   0.5653221   0.0000000), wk =   0.0104167
        k(  199) = (   0.2500000   0.4330127   0.0000000), wk =   0.0052083
        k(  200) = (   0.2500000   0.4570690   0.0000000), wk =   0.0104167
        k(  201) = (   0.2500000   0.4811252   0.0000000), wk =   0.0104167
        k(  202) = (   0.2500000   0.5051815   0.0000000), wk =   0.0104167
        k(  203) = (   0.2500000   0.5292377   0.0000000), wk =   0.0104167
        k(  204) = (   0.2500000   0.5532940   0.0000000), wk =   0.0104167
        k(  205) = (   0.2500000   0.5773503   0.0000000), wk =   0.0052083
        k(  206) = (   0.2708333   0.4690971   0.0000000), wk =   0.0052083
        k(  207) = (   0.2708333   0.4931534   0.0000000), wk =   0.0104167
        k(  208) = (   0.2708333   0.5172096   0.0000000), wk =   0.0104167
        k(  209) = (   0.2708333   0.5412659   0.0000000), wk =   0.0104167
        k(  210) = (   0.2708333   0.5653221   0.0000000), wk =   0.0104167
        k(  211) = (   0.2916667   0.5051815   0.0000000), wk =   0.0052083
        k(  212) = (   0.2916667   0.5292377   0.0000000), wk =   0.0104167
        k(  213) = (   0.2916667   0.5532940   0.0000000), wk =   0.0104167
        k(  214) = (   0.2916667   0.5773503   0.0000000), wk =   0.0052083
        k(  215) = (   0.3125000   0.5412659   0.0000000), wk =   0.0052083
        k(  216) = (   0.3125000   0.5653221   0.0000000), wk =   0.0104167
        k(  217) = (   0.3333333   0.5773503   0.0000000), wk =   0.0017361

                       cryst. coord.
        k(    1) = (   0.0000000   0.0000000   0.0000000), wk =   0.0008681
        k(    2) = (   0.0000000   0.0208333   0.0000000), wk =   0.0052083
        k(    3) = (   0.0000000   0.0416667   0.0000000), wk =   0.0052083
        k(    4) = (   0.0000000   0.0625000   0.0000000), wk =   0.0052083
        k(    5) = (   0.0000000   0.0833333   0.0000000), wk =   0.0052083
        k(    6) = (   0.0000000   0.1041667   0.0000000), wk =   0.0052083
        k(    7) = (   0.0000000   0.1250000   0.0000000), wk =   0.0052083
        k(    8) = (   0.0000000   0.1458333   0.0000000), wk =   0.0052083
        k(    9) = (   0.0000000   0.1666667   0.0000000), wk =   0.0052083
        k(   10) = (   0.0000000   0.1875000   0.0000000), wk =   0.0052083
        k(   11) = (   0.0000000   0.2083333   0.0000000), wk =   0.0052083
        k(   12) = (   0.0000000   0.2291667   0.0000000), wk =   0.0052083
        k(   13) = (   0.0000000   0.2500000   0.0000000), wk =   0.0052083
        k(   14) = (   0.0000000   0.2708333   0.0000000), wk =   0.0052083
        k(   15) = (   0.0000000   0.2916667   0.0000000), wk =   0.0052083
        k(   16) = (   0.0000000   0.3125000   0.0000000), wk =   0.0052083
        k(   17) = (   0.0000000   0.3333333   0.0000000), wk =   0.0052083
        k(   18) = (   0.0000000   0.3541667   0.0000000), wk =   0.0052083
        k(   19) = (   0.0000000   0.3750000   0.0000000), wk =   0.0052083
        k(   20) = (   0.0000000   0.3958333   0.0000000), wk =   0.0052083
        k(   21) = (   0.0000000   0.4166667   0.0000000), wk =   0.0052083
        k(   22) = (   0.0000000   0.4375000   0.0000000), wk =   0.0052083
        k(   23) = (   0.0000000   0.4583333   0.0000000), wk =   0.0052083
        k(   24) = (   0.0000000   0.4791667   0.0000000), wk =   0.0052083
        k(   25) = (   0.0000000  -0.5000000   0.0000000), wk =   0.0026042
        k(   26) = (   0.0208333   0.0208333   0.0000000), wk =   0.0052083
        k(   27) = (   0.0208333   0.0416667   0.0000000), wk =   0.0104167
        k(   28) = (   0.0208333   0.0625000   0.0000000), wk =   0.0104167
        k(   29) = (   0.0208333   0.0833333   0.0000000), wk =   0.0104167
        k(   30) = (   0.0208333   0.1041667   0.0000000), wk =   0.0104167
        k(   31) = (   0.0208333   0.1250000   0.0000000), wk =   0.0104167
        k(   32) = (   0.0208333   0.1458333   0.0000000), wk =   0.0104167
        k(   33) = (   0.0208333   0.1666667   0.0000000), wk =   0.0104167
        k(   34) = (   0.0208333   0.1875000   0.0000000), wk =   0.0104167
        k(   35) = (   0.0208333   0.2083333   0.0000000), wk =   0.0104167
        k(   36) = (   0.0208333   0.2291667   0.0000000), wk =   0.0104167
        k(   37) = (   0.0208333   0.2500000   0.0000000), wk =   0.0104167
        k(   38) = (   0.0208333   0.2708333   0.0000000), wk =   0.0104167
        k(   39) = (   0.0208333   0.2916667   0.0000000), wk =   0.0104167
        k(   40) = (   0.0208333   0.3125000   0.0000000), wk =   0.0104167
        k(   41) = (   0.0208333   0.3333333   0.0000000), wk =   0.0104167
        k(   42) = (   0.0208333   0.3541667   0.0000000), wk =   0.0104167
        k(   43) = (   0.0208333   0.3750000   0.0000000), wk =   0.0104167
        k(   44) = (   0.0208333   0.3958333   0.0000000), wk =   0.0104167
        k(   45) = (   0.0208333   0.4166667   0.0000000), wk =   0.0104167
        k(   46) = (   0.0208333   0.4375000   0.0000000), wk =   0.0104167
        k(   47) = (   0.0208333   0.4583333   0.0000000), wk =   0.0104167
        k(   48) = (   0.0208333   0.4791667   0.0000000), wk =   0.0104167
        k(   49) = (   0.0416667   0.0416667   0.0000000), wk =   0.0052083
        k(   50) = (   0.0416667   0.0625000   0.0000000), wk =   0.0104167
        k(   51) = (   0.0416667   0.0833333   0.0000000), wk =   0.0104167
        k(   52) = (   0.0416667   0.1041667   0.0000000), wk =   0.0104167
        k(   53) = (   0.0416667   0.1250000   0.0000000), wk =   0.0104167
        k(   54) = (   0.0416667   0.1458333   0.0000000), wk =   0.0104167
        k(   55) = (   0.0416667   0.1666667   0.0000000), wk =   0.0104167
        k(   56) = (   0.0416667   0.1875000   0.0000000), wk =   0.0104167
        k(   57) = (   0.0416667   0.2083333   0.0000000), wk =   0.0104167
        k(   58) = (   0.0416667   0.2291667   0.0000000), wk =   0.0104167
        k(   59) = (   0.0416667   0.2500000   0.0000000), wk =   0.0104167
        k(   60) = (   0.0416667   0.2708333   0.0000000), wk =   0.0104167
        k(   61) = (   0.0416667   0.2916667   0.0000000), wk =   0.0104167
        k(   62) = (   0.0416667   0.3125000   0.0000000), wk =   0.0104167
        k(   63) = (   0.0416667   0.3333333   0.0000000), wk =   0.0104167
        k(   64) = (   0.0416667   0.3541667   0.0000000), wk =   0.0104167
        k(   65) = (   0.0416667   0.3750000   0.0000000), wk =   0.0104167
        k(   66) = (   0.0416667   0.3958333   0.0000000), wk =   0.0104167
        k(   67) = (   0.0416667   0.4166667   0.0000000), wk =   0.0104167
        k(   68) = (   0.0416667   0.4375000   0.0000000), wk =   0.0104167
        k(   69) = (   0.0416667   0.4583333   0.0000000), wk =   0.0104167
        k(   70) = (   0.0416667   0.4791667   0.0000000), wk =   0.0052083
        k(   71) = (   0.0625000   0.0625000   0.0000000), wk =   0.0052083
        k(   72) = (   0.0625000   0.0833333   0.0000000), wk =   0.0104167
        k(   73) = (   0.0625000   0.1041667   0.0000000), wk =   0.0104167
        k(   74) = (   0.0625000   0.1250000   0.0000000), wk =   0.0104167
        k(   75) = (   0.0625000   0.1458333   0.0000000), wk =   0.0104167
        k(   76) = (   0.0625000   0.1666667   0.0000000), wk =   0.0104167
        k(   77) = (   0.0625000   0.1875000   0.0000000), wk =   0.0104167
        k(   78) = (   0.0625000   0.2083333   0.0000000), wk =   0.0104167
        k(   79) = (   0.0625000   0.2291667   0.0000000), wk =   0.0104167
        k(   80) = (   0.0625000   0.2500000   0.0000000), wk =   0.0104167
        k(   81) = (   0.0625000   0.2708333   0.0000000), wk =   0.0104167
        k(   82) = (   0.0625000   0.2916667   0.0000000), wk =   0.0104167
        k(   83) = (   0.0625000   0.3125000   0.0000000), wk =   0.0104167
        k(   84) = (   0.0625000   0.3333333   0.0000000), wk =   0.0104167
        k(   85) = (   0.0625000   0.3541667   0.0000000), wk =   0.0104167
        k(   86) = (   0.0625000   0.3750000   0.0000000), wk =   0.0104167
        k(   87) = (   0.0625000   0.3958333   0.0000000), wk =   0.0104167
        k(   88) = (   0.0625000   0.4166667   0.0000000), wk =   0.0104167
        k(   89) = (   0.0625000   0.4375000   0.0000000), wk =   0.0104167
        k(   90) = (   0.0625000   0.4583333   0.0000000), wk =   0.0104167
        k(   91) = (   0.0833333   0.0833333   0.0000000), wk =   0.0052083
        k(   92) = (   0.0833333   0.1041667   0.0000000), wk =   0.0104167
        k(   93) = (   0.0833333   0.1250000   0.0000000), wk =   0.0104167
        k(   94) = (   0.0833333   0.1458333   0.0000000), wk =   0.0104167
        k(   95) = (   0.0833333   0.1666667   0.0000000), wk =   0.0104167
        k(   96) = (   0.0833333   0.1875000   0.0000000), wk =   0.0104167
        k(   97) = (   0.0833333   0.2083333   0.0000000), wk =   0.0104167
        k(   98) = (   0.0833333   0.2291667   0.0000000), wk =   0.0104167
        k(   99) = (   0.0833333   0.2500000   0.0000000), wk =   0.0104167
        k(  100) = (   0.0833333   0.2708333   0.0000000), wk =   0.0104167
        k(  101) = (   0.0833333   0.2916667   0.0000000), wk =   0.0104167
        k(  102) = (   0.0833333   0.3125000   0.0000000), wk =   0.0104167
        k(  103) = (   0.0833333   0.3333333   0.0000000), wk =   0.0104167
        k(  104) = (   0.0833333   0.3541667   0.0000000), wk =   0.0104167
        k(  105) = (   0.0833333   0.3750000   0.0000000), wk =   0.0104167
        k(  106) = (   0.0833333   0.3958333   0.0000000), wk =   0.0104167
        k(  107) = (   0.0833333   0.4166667   0.0000000), wk =   0.0104167
        k(  108) = (   0.0833333   0.4375000   0.0000000), wk =   0.0104167
        k(  109) = (   0.0833333   0.4583333   0.0000000), wk =   0.0052083
        k(  110) = (   0.1041667   0.1041667   0.0000000), wk =   0.0052083
        k(  111) = (   0.1041667   0.1250000   0.0000000), wk =   0.0104167
        k(  112) = (   0.1041667   0.1458333   0.0000000), wk =   0.0104167
        k(  113) = (   0.1041667   0.1666667   0.0000000), wk =   0.0104167
        k(  114) = (   0.1041667   0.1875000   0.0000000), wk =   0.0104167
        k(  115) = (   0.1041667   0.2083333   0.0000000), wk =   0.0104167
        k(  116) = (   0.1041667   0.2291667   0.0000000), wk =   0.0104167
        k(  117) = (   0.1041667   0.2500000   0.0000000), wk =   0.0104167
        k(  118) = (   0.1041667   0.2708333   0.0000000), wk =   0.0104167
        k(  119) = (   0.1041667   0.2916667   0.0000000), wk =   0.0104167
        k(  120) = (   0.1041667   0.3125000   0.0000000), wk =   0.0104167
        k(  121) = (   0.1041667   0.3333333   0.0000000), wk =   0.0104167
        k(  122) = (   0.1041667   0.3541667   0.0000000), wk =   0.0104167
        k(  123) = (   0.1041667   0.3750000   0.0000000), wk =   0.0104167
        k(  124) = (   0.1041667   0.3958333   0.0000000), wk =   0.0104167
        k(  125) = (   0.1041667   0.4166667   0.0000000), wk =   0.0104167
        k(  126) = (   0.1041667   0.4375000   0.0000000), wk =   0.0104167
        k(  127) = (   0.1250000   0.1250000   0.0000000), wk =   0.0052083
        k(  128) = (   0.1250000   0.1458333   0.0000000), wk =   0.0104167
        k(  129) = (   0.1250000   0.1666667   0.0000000), wk =   0.0104167
        k(  130) = (   0.1250000   0.1875000   0.0000000), wk =   0.0104167
        k(  131) = (   0.1250000   0.2083333   0.0000000), wk =   0.0104167
        k(  132) = (   0.1250000   0.2291667   0.0000000), wk =   0.0104167
        k(  133) = (   0.1250000   0.2500000   0.0000000), wk =   0.0104167
        k(  134) = (   0.1250000   0.2708333   0.0000000), wk =   0.0104167
        k(  135) = (   0.1250000   0.2916667   0.0000000), wk =   0.0104167
        k(  136) = (   0.1250000   0.3125000   0.0000000), wk =   0.0104167
        k(  137) = (   0.1250000   0.3333333   0.0000000), wk =   0.0104167
        k(  138) = (   0.1250000   0.3541667   0.0000000), wk =   0.0104167
        k(  139) = (   0.1250000   0.3750000   0.0000000), wk =   0.0104167
        k(  140) = (   0.1250000   0.3958333   0.0000000), wk =   0.0104167
        k(  141) = (   0.1250000   0.4166667   0.0000000), wk =   0.0104167
        k(  142) = (   0.1250000   0.4375000   0.0000000), wk =   0.0052083
        k(  143) = (   0.1458333   0.1458333   0.0000000), wk =   0.0052083
        k(  144) = (   0.1458333   0.1666667   0.0000000), wk =   0.0104167
        k(  145) = (   0.1458333   0.1875000   0.0000000), wk =   0.0104167
        k(  146) = (   0.1458333   0.2083333   0.0000000), wk =   0.0104167
        k(  147) = (   0.1458333   0.2291667   0.0000000), wk =   0.0104167
        k(  148) = (   0.1458333   0.2500000   0.0000000), wk =   0.0104167
        k(  149) = (   0.1458333   0.2708333   0.0000000), wk =   0.0104167
        k(  150) = (   0.1458333   0.2916667   0.0000000), wk =   0.0104167
        k(  151) = (   0.1458333   0.3125000   0.0000000), wk =   0.0104167
        k(  152) = (   0.1458333   0.3333333   0.0000000), wk =   0.0104167
        k(  153) = (   0.1458333   0.3541667   0.0000000), wk =   0.0104167
        k(  154) = (   0.1458333   0.3750000   0.0000000), wk =   0.0104167
        k(  155) = (   0.1458333   0.3958333   0.0000000), wk =   0.0104167
        k(  156) = (   0.1458333   0.4166667   0.0000000), wk =   0.0104167
        k(  157) = (   0.1666667   0.1666667   0.0000000), wk =   0.0052083
        k(  158) = (   0.1666667   0.1875000   0.0000000), wk =   0.0104167
        k(  159) = (   0.1666667   0.2083333   0.0000000), wk =   0.0104167
        k(  160) = (   0.1666667   0.2291667   0.0000000), wk =   0.0104167
        k(  161) = (   0.1666667   0.2500000   0.0000000), wk =   0.0104167
        k(  162) = (   0.1666667   0.2708333   0.0000000), wk =   0.0104167
        k(  163) = (   0.1666667   0.2916667   0.0000000), wk =   0.0104167
        k(  164) = (   0.1666667   0.3125000   0.0000000), wk =   0.0104167
        k(  165) = (   0.1666667   0.3333333   0.0000000), wk =   0.0104167
        k(  166) = (   0.1666667   0.3541667   0.0000000), wk =   0.0104167
        k(  167) = (   0.1666667   0.3750000   0.0000000), wk =   0.0104167
        k(  168) = (   0.1666667   0.3958333   0.0000000), wk =   0.0104167
        k(  169) = (   0.1666667   0.4166667   0.0000000), wk =   0.0052083
        k(  170) = (   0.1875000   0.1875000   0.0000000), wk =   0.0052083
        k(  171) = (   0.1875000   0.2083333   0.0000000), wk =   0.0104167
        k(  172) = (   0.1875000   0.2291667   0.0000000), wk =   0.0104167
        k(  173) = (   0.1875000   0.2500000   0.0000000), wk =   0.0104167
        k(  174) = (   0.1875000   0.2708333   0.0000000), wk =   0.0104167
        k(  175) = (   0.1875000   0.2916667   0.0000000), wk =   0.0104167
        k(  176) = (   0.1875000   0.3125000   0.0000000), wk =   0.0104167
        k(  177) = (   0.1875000   0.3333333   0.0000000), wk =   0.0104167
        k(  178) = (   0.1875000   0.3541667   0.0000000), wk =   0.0104167
        k(  179) = (   0.1875000   0.3750000   0.0000000), wk =   0.0104167
        k(  180) = (   0.1875000   0.3958333   0.0000000), wk =   0.0104167
        k(  181) = (   0.2083333   0.2083333   0.0000000), wk =   0.0052083
        k(  182) = (   0.2083333   0.2291667   0.0000000), wk =   0.0104167
        k(  183) = (   0.2083333   0.2500000   0.0000000), wk =   0.0104167
        k(  184) = (   0.2083333   0.2708333   0.0000000), wk =   0.0104167
        k(  185) = (   0.2083333   0.2916667   0.0000000), wk =   0.0104167
        k(  186) = (   0.2083333   0.3125000   0.0000000), wk =   0.0104167
        k(  187) = (   0.2083333   0.3333333   0.0000000), wk =   0.0104167
        k(  188) = (   0.2083333   0.3541667   0.0000000), wk =   0.0104167
        k(  189) = (   0.2083333   0.3750000   0.0000000), wk =   0.0104167
        k(  190) = (   0.2083333   0.3958333   0.0000000), wk =   0.0052083
        k(  191) = (   0.2291667   0.2291667   0.0000000), wk =   0.0052083
        k(  192) = (   0.2291667   0.2500000   0.0000000), wk =   0.0104167
        k(  193) = (   0.2291667   0.2708333   0.0000000), wk =   0.0104167
        k(  194) = (   0.2291667   0.2916667   0.0000000), wk =   0.0104167
        k(  195) = (   0.2291667   0.3125000   0.0000000), wk =   0.0104167
        k(  196) = (   0.2291667   0.3333333   0.0000000), wk =   0.0104167
        k(  197) = (   0.2291667   0.3541667   0.0000000), wk =   0.0104167
        k(  198) = (   0.2291667   0.3750000   0.0000000), wk =   0.0104167
        k(  199) = (   0.2500000   0.2500000   0.0000000), wk =   0.0052083
        k(  200) = (   0.2500000   0.2708333   0.0000000), wk =   0.0104167
        k(  201) = (   0.2500000   0.2916667   0.0000000), wk =   0.0104167
        k(  202) = (   0.2500000   0.3125000   0.0000000), wk =   0.0104167
        k(  203) = (   0.2500000   0.3333333   0.0000000), wk =   0.0104167
        k(  204) = (   0.2500000   0.3541667   0.0000000), wk =   0.0104167
        k(  205) = (   0.2500000   0.3750000   0.0000000), wk =   0.0052083
        k(  206) = (   0.2708333   0.2708333   0.0000000), wk =   0.0052083
        k(  207) = (   0.2708333   0.2916667   0.0000000), wk =   0.0104167
        k(  208) = (   0.2708333   0.3125000   0.0000000), wk =   0.0104167
        k(  209) = (   0.2708333   0.3333333   0.0000000), wk =   0.0104167
        k(  210) = (   0.2708333   0.3541667   0.0000000), wk =   0.0104167
        k(  211) = (   0.2916667   0.2916667   0.0000000), wk =   0.0052083
        k(  212) = (   0.2916667   0.3125000   0.0000000), wk =   0.0104167
        k(  213) = (   0.2916667   0.3333333   0.0000000), wk =   0.0104167
        k(  214) = (   0.2916667   0.3541667   0.0000000), wk =   0.0052083
        k(  215) = (   0.3125000   0.3125000   0.0000000), wk =   0.0052083
        k(  216) = (   0.3125000   0.3333333   0.0000000), wk =   0.0104167
        k(  217) = (   0.3333333   0.3333333   0.0000000), wk =   0.0017361

     Dense  grid:   455489 G-vectors     FFT dimensions: (  64,  64, 270)

     Smooth grid:   160939 G-vectors     FFT dimensions: (  45,  45, 192)

     Dynamical RAM for                 wfc:       0.92 MB

     Dynamical RAM for     wfc (w. buffer):     200.76 MB

     Dynamical RAM for           str. fact:       1.16 MB

     Dynamical RAM for           local pot:       0.00 MB

     Dynamical RAM for          nlocal pot:       1.84 MB

     Dynamical RAM for                qrad:       1.76 MB

     Dynamical RAM for          rho,v,vnew:       7.69 MB

     Dynamical RAM for               rhoin:       2.56 MB

     Dynamical RAM for            rho*nmix:      18.53 MB

     Dynamical RAM for           G-vectors:       4.55 MB

     Dynamical RAM for          h,s,v(r/c):       0.06 MB

     Dynamical RAM for          <psi|beta>:       0.01 MB

     Dynamical RAM for                 psi:       1.84 MB

     Dynamical RAM for                hpsi:       1.84 MB

     Dynamical RAM for                spsi:       1.84 MB

     Dynamical RAM for      wfcinit/wfcrot:       1.85 MB

     Dynamical RAM for           addusdens:     217.76 MB

     Estimated static dynamical RAM per process >     229.67 MB

     Estimated max dynamical RAM per process >     465.97 MB

     Estimated total dynamical RAM >       2.73 GB

     Initial potential from superposition of free atoms

     starting charge      25.9999, renormalised to      28.0000

     negative rho (up, down):  6.188E-04 0.000E+00
     Starting wfcs are   18 randomized atomic wfcs

     total cpu time spent up to now is      164.1 secs

     Self-consistent Calculation

     iteration #  1     ecut=    60.00 Ry     beta= 0.70
     Davidson diagonalization with overlap

---- Real-time Memory Report at c_bands before calling an iterative solver
           303 MiB given to the printing process from OS
             0 MiB allocation reported by mallinfo(arena+hblkhd)
          4397 MiB available memory on the node where the printing process lives
------------------
     ethr =  1.00E-02,  avg # of iterations =  7.5

     negative rho (up, down):  8.652E-07 0.000E+00

     total cpu time spent up to now is     1717.0 secs

     total energy              =    -325.43743974 Ry
     estimated scf accuracy    <       2.48546906 Ry

     iteration #  2     ecut=    60.00 Ry     beta= 0.70
     Davidson diagonalization with overlap

---- Real-time Memory Report at c_bands before calling an iterative solver
           543 MiB given to the printing process from OS
             0 MiB allocation reported by mallinfo(arena+hblkhd)
          3236 MiB available memory on the node where the printing process lives
------------------
     ethr =  8.88E-03,  avg # of iterations =  2.1

     negative rho (up, down):  9.819E-06 0.000E+00

     total cpu time spent up to now is     2430.3 secs

     total energy              =    -326.33406813 Ry
     estimated scf accuracy    <       0.36445230 Ry

     iteration #  3     ecut=    60.00 Ry     beta= 0.70
     Davidson diagonalization with overlap

---- Real-time Memory Report at c_bands before calling an iterative solver
           544 MiB given to the printing process from OS
             0 MiB allocation reported by mallinfo(arena+hblkhd)
          3348 MiB available memory on the node where the printing process lives
------------------
     ethr =  1.30E-03,  avg # of iterations =  2.1

     negative rho (up, down):  6.641E-05 0.000E+00

     total cpu time spent up to now is     3144.8 secs

     total energy              =    -326.39067517 Ry
     estimated scf accuracy    <       0.00526102 Ry

     iteration #  4     ecut=    60.00 Ry     beta= 0.70
     Davidson diagonalization with overlap

---- Real-time Memory Report at c_bands before calling an iterative solver
           546 MiB given to the printing process from OS
             0 MiB allocation reported by mallinfo(arena+hblkhd)
          3345 MiB available memory on the node where the printing process lives
------------------
     ethr =  1.88E-05,  avg # of iterations =  8.2

     negative rho (up, down):  8.404E-05 0.000E+00

     total cpu time spent up to now is     4928.5 secs

     total energy              =    -326.39254070 Ry
     estimated scf accuracy    <       0.00068207 Ry

     iteration #  5     ecut=    60.00 Ry     beta= 0.70
     Davidson diagonalization with overlap

---- Real-time Memory Report at c_bands before calling an iterative solver
           546 MiB given to the printing process from OS
             0 MiB allocation reported by mallinfo(arena+hblkhd)
          3020 MiB available memory on the node where the printing process lives
------------------
     ethr =  2.44E-06,  avg # of iterations =  4.8

     negative rho (up, down):  8.671E-05 0.000E+00

     total cpu time spent up to now is     6067.1 secs

     total energy              =    -326.39267979 Ry
     estimated scf accuracy    <       0.00000089 Ry

     iteration #  6     ecut=    60.00 Ry     beta= 0.70
     Davidson diagonalization with overlap

---- Real-time Memory Report at c_bands before calling an iterative solver
           547 MiB given to the printing process from OS
             0 MiB allocation reported by mallinfo(arena+hblkhd)
          3014 MiB available memory on the node where the printing process lives
------------------
     ethr =  3.19E-09,  avg # of iterations =  4.1

     negative rho (up, down):  8.725E-05 0.000E+00

     total cpu time spent up to now is     7137.2 secs

     total energy              =    -326.39268075 Ry
     estimated scf accuracy    <       0.00000101 Ry

     iteration #  7     ecut=    60.00 Ry     beta= 0.70
     Davidson diagonalization with overlap

---- Real-time Memory Report at c_bands before calling an iterative solver
           548 MiB given to the printing process from OS
             0 MiB allocation reported by mallinfo(arena+hblkhd)
          2998 MiB available memory on the node where the printing process lives
------------------
     ethr =  3.19E-09,  avg # of iterations =  2.0

     negative rho (up, down):  8.722E-05 0.000E+00

     total cpu time spent up to now is     7844.0 secs

     End of self-consistent calculation

          k = 0.0000 0.0000 0.0000 ( 20025 PWs)   bands (ev):

   -24.1141 -24.0975 -24.0975 -23.9968 -23.9968 -23.8356 -23.8356 -23.7662
   -23.7662 -23.7088 -12.2064  -4.2920  -3.6999  -3.3516  -3.3516   0.6656
     0.6656   1.0087

     occupation numbers 
     1.0000   1.0000   1.0000   1.0000   1.0000   1.0000   1.0000   1.0000
     1.0000   1.0000   1.0000   1.0000   1.0000   1.0000   1.0000  -0.0000
    -0.0000  -0.0000

          k = 0.0000 0.0241 0.0000 ( 20045 PWs)   bands (ev):

   -24.1143 -24.0987 -24.0984 -23.9969 -23.9966 -23.8345 -23.8343 -23.7664
   -23.7661 -23.7088 -12.2027  -4.2881  -3.8660  -3.3601  -3.1899   0.6608
     0.6816   2.3116

     occupation numbers 
     1.0000   1.0000   1.0000   1.0000   1.0000   1.0000   1.0000   1.0000
     1.0000   1.0000   1.0000   1.0000   1.0000   1.0000   1.0000  -0.0000
    -0.0000  -0.0000

          k = 0.0000 0.0481 0.0000 ( 20035 PWs)   bands (ev):

   -24.1151 -24.1021 -24.1006 -23.9972 -23.9961 -23.8313 -23.8305 -23.7670
   -23.7658 -23.7086 -12.1916  -4.2766  -4.1376  -3.3852  -2.9322   0.6471
     0.7292   1.0317

     occupation numbers 
     1.0000   1.0000   1.0000   1.0000   1.0000   1.0000   1.0000   1.0000
     1.0000   1.0000   1.0000   1.0000   1.0000   1.0000   1.0017  -0.0000
    -0.0000  -0.0000

          k = 0.0000 0.0722 0.0000 ( 20023 PWs)   bands (ev):

   -24.1171 -24.1075 -24.1034 -23.9977 -23.9953 -23.8264 -23.8245 -23.7680
   -23.7654 -23.7084 -12.1731  -4.4244  -4.2575  -3.4255  -2.6708   0.6316
     0.8069   1.0580

     occupation numbers 
     1.0000   1.0000   1.0000   1.0000   1.0000   1.0000   1.0000   1.0000
     1.0000   1.0000   1.0000   1.0000   1.0000   1.0000   1.0298  -0.0000
    -0.0000  -0.0000

          k = 0.0000 0.0962 0.0000 ( 20005 PWs)   bands (ev):

   -24.1216 -24.1146 -24.1054 -23.9983 -23.9941 -23.8199 -23.8167 -23.7693
   -23.7647 -23.7080 -12.1473  -4.7147  -4.2307  -3.4790  -2.4206   0.6223
     0.9128   1.0925

     occupation numbers 
     1.0000   1.0000   1.0000   1.0000   1.0000   1.0000   1.0000   1.0000
     1.0000   1.0000   1.0000   1.0000   1.0000   1.0000   0.8865  -0.0000
    -0.0000  -0.0000

          k = 0.0000 0.1203 0.0000 ( 20037 PWs)   bands (ev):

   -24.1284 -24.1231 -24.1060 -23.9991 -23.9926 -23.8123 -23.8073 -23.7710
   -23.7639 -23.7074 -12.1141  -5.0051  -4.1964  -3.5435  -2.1898   0.6282
     1.0444   1.1346

     occupation numbers 
     1.0000   1.0000   1.0000   1.0000   1.0000   1.0000   1.0000   1.0000
     1.0000   1.0000   1.0000   1.0000   1.0000   1.0000   0.2458  -0.0000
    -0.0000  -0.0000

          k = 0.0000 0.1443 0.0000 ( 20065 PWs)   bands (ev):

   -24.1370 -24.1325 -24.1059 -24.0001 -23.9908 -23.8041 -23.7967 -23.7731
   -23.7630 -23.7065 -12.0736  -5.2939  -4.1547  -3.6164  -1.9860   0.6590
     1.1840   1.1994

     occupation numbers 
     1.0000   1.0000   1.0000   1.0000   1.0000   1.0000   1.0000   1.0000
     1.0000   1.0000   1.0000   1.0000   1.0000   1.0000  -0.0307  -0.0000
    -0.0000  -0.0000

          k = 0.0000 0.1684 0.0000 ( 20099 PWs)   bands (ev):

   -24.1466 -24.1425 -24.1053 -24.0011 -23.9887 -23.7957 -23.7854 -23.7755
   -23.7619 -23.7051 -12.0258  -5.5799  -4.1055  -3.6954  -1.8160   0.7237
     1.2414   1.3750

     occupation numbers 
     1.0000   1.0000   1.0000   1.0000   1.0000   1.0000   1.0000   1.0000
     1.0000   1.0000   1.0000   1.0000   1.0000   1.0000  -0.0189  -0.0000
    -0.0000  -0.0000

          k = 0.0000 0.1925 0.0000 ( 20113 PWs)   bands (ev):

   -24.1568 -24.1529 -24.1044 -24.0023 -23.9863 -23.7875 -23.7782 -23.7735
   -23.7608 -23.7031 -11.9709  -5.8623  -4.0492  -3.7781  -1.6848   0.8280
     1.3076   1.4031

     occupation numbers 
     1.0000   1.0000   1.0000   1.0000   1.0000   1.0000   1.0000   1.0000
     1.0000   1.0000   1.0000   1.0000   1.0000   1.0000  -0.0044  -0.0000
    -0.0000  -0.0000

          k = 0.0000 0.2165 0.0000 ( 20077 PWs)   bands (ev):

   -24.1672 -24.1635 -24.1034 -24.0036 -23.9837 -23.7812 -23.7799 -23.7614
   -23.7595 -23.7004 -11.9089  -6.1404  -3.9857  -3.8627  -1.5932   0.9725
     1.2102   1.3848

     occupation numbers 
     1.0000   1.0000   1.0000   1.0000   1.0000   1.0000   1.0000   1.0000
     1.0000   1.0000   1.0000   1.0000   1.0000   1.0000  -0.0011  -0.0000
    -0.0000  -0.0000

          k = 0.0000 0.2406 0.0000 ( 20071 PWs)   bands (ev):

   -24.1777 -24.1740 -24.1022 -24.0049 -23.9808 -23.7844 -23.7732 -23.7582
   -23.7492 -23.6967 -11.8399  -6.4135  -3.9475  -3.9153  -1.5378   1.0115
     1.1500   1.4781

     occupation numbers 
     1.0000   1.0000   1.0000   1.0000   1.0000   1.0000   1.0000   1.0000
     1.0000   1.0000   1.0000   1.0000   1.0000   1.0000  -0.0004  -0.0000
    -0.0000  -0.0000

          k = 0.0000 0.2646 0.0000 ( 20087 PWs)   bands (ev):

   -24.1881 -24.1843 -24.1009 -24.0062 -23.9778 -23.7879 -23.7677 -23.7569
   -23.7373 -23.6921 -11.7642  -6.6810  -4.0310  -3.8383  -1.5123   0.8091
     1.3397   1.6027

     occupation numbers 
     1.0000   1.0000   1.0000   1.0000   1.0000   1.0000   1.0000   1.0000
     1.0000   1.0000   1.0000   1.0000   1.0000   1.0000  -0.0003  -0.0000
    -0.0000  -0.0000

          k = 0.0000 0.2887 0.0000 ( 20087 PWs)   bands (ev):

   -24.1982 -24.1942 -24.0996 -24.0076 -23.9745 -23.7915 -23.7634 -23.7555
   -23.7256 -23.6865 -11.6819  -6.9422  -4.1119  -3.7550  -1.5090   0.6051
     1.5061   1.7874

     occupation numbers 
     1.0000   1.0000   1.0000   1.0000   1.0000   1.0000   1.0000   1.0000
     1.0000   1.0000   1.0000   1.0000   1.0000   1.0000  -0.0002  -0.0000
    -0.0000  -0.0000

          k = 0.0000 0.3127 0.0000 ( 20107 PWs)   bands (ev):

   -24.2078 -24.2036 -24.0982 -24.0089 -23.9712 -23.7952 -23.7602 -23.7542
   -23.7144 -23.6803 -11.5934  -7.1965  -4.1892  -3.6657  -1.5214   0.4012
     1.6394   2.0351

     occupation numbers 
     1.0000   1.0000   1.0000   1.0000   1.0000   1.0000   1.0000   1.0000
     1.0000   1.0000   1.0000   1.0000   1.0000   1.0000  -0.0003  -0.0000
    -0.0000  -0.0000

          k = 0.0000 0.3368 0.0000 ( 20109 PWs)   bands (ev):

   -24.2169 -24.2125 -24.0969 -24.0102 -23.9677 -23.7991 -23.7581 -23.7529
   -23.7038 -23.6737 -11.4991  -7.4432  -4.2621  -3.5708  -1.5437   0.1989
     1.7600   2.3195

     occupation numbers 
     1.0000   1.0000   1.0000   1.0000   1.0000   1.0000   1.0000   1.0000
     1.0000   1.0000   1.0000   1.0000   1.0000   1.0000  -0.0005  -0.0000
    -0.0000  -0.0000

          k = 0.0000 0.3608 0.0000 ( 20133 PWs)   bands (ev):

   -24.2253 -24.2208 -24.0955 -24.0114 -23.9642 -23.8029 -23.7566 -23.7517
   -23.6939 -23.6669 -11.3994  -7.6814  -4.3298  -3.4712  -1.5716  -0.0002
     1.8800   2.6231

     occupation numbers 
     1.0000   1.0000   1.0000   1.0000   1.0000   1.0000   1.0000   1.0000
     1.0000   1.0000   1.0000   1.0000   1.0000   1.0000  -0.0008  -0.0000
    -0.0000  -0.0000

          k = 0.0000 0.3849 0.0000 ( 20145 PWs)   bands (ev):

   -24.2331 -24.2283 -24.0943 -24.0126 -23.9608 -23.8067 -23.7558 -23.7505
   -23.6848 -23.6603 -11.2953  -7.9102  -4.3918  -3.3676  -1.6020  -0.1944
     2.0038   2.9336

     occupation numbers 
     1.0000   1.0000   1.0000   1.0000   1.0000   1.0000   1.0000   1.0000
     1.0000   1.0000   1.0000   1.0000   1.0000   1.0000  -0.0013  -0.0000
    -0.0000  -0.0000

          k = 0.0000 0.4090 0.0000 ( 20151 PWs)   bands (ev):

   -24.2401 -24.2351 -24.0931 -24.0137 -23.9574 -23.8104 -23.7553 -23.7494
   -23.6765 -23.6541 -11.1878  -8.1281  -4.4475  -3.2612  -1.6326  -0.3821
     2.1326   3.0445

     occupation numbers 
     1.0000   1.0000   1.0000   1.0000   1.0000   1.0000   1.0000   1.0000
     1.0000   1.0000   1.0000   1.0000   1.0000   1.0000  -0.0021  -0.0000
    -0.0000  -0.0000

          k = 0.0000 0.4330 0.0000 ( 20161 PWs)   bands (ev):

   -24.2463 -24.2411 -24.0920 -24.0146 -23.9542 -23.8139 -23.7551 -23.7485
   -23.6693 -23.6483 -11.0786  -8.3334  -4.4966  -3.1538  -1.6616  -0.5609
     2.2675   3.1545

     occupation numbers 
     1.0000   1.0000   1.0000   1.0000   1.0000   1.0000   1.0000   1.0000
     1.0000   1.0000   1.0000   1.0000   1.0000   1.0000  -0.0032  -0.0000
    -0.0000  -0.0000

          k = 0.0000 0.4571 0.0000 ( 20167 PWs)   bands (ev):

   -24.2516 -24.2462 -24.0911 -24.0155 -23.9513 -23.8171 -23.7551 -23.7476
   -23.6630 -23.6433 -10.9700  -8.5235  -4.5386  -3.0476  -1.6878  -0.7281
     2.4082   3.2631

     occupation numbers 
     1.0000   1.0000   1.0000   1.0000   1.0000   1.0000   1.0000   1.0000
     1.0000   1.0000   1.0000   1.0000   1.0000   1.0002  -0.0046  -0.0000
    -0.0000  -0.0000

          k = 0.0000 0.4811 0.0000 ( 20157 PWs)   bands (ev):

   -24.2559 -24.2504 -24.0903 -24.0162 -23.9487 -23.8199 -23.7551 -23.7469
   -23.6578 -23.6391 -10.8656  -8.6948  -4.5733  -2.9462  -1.7102  -0.8798
     2.5546   3.3642

     occupation numbers 
     1.0000   1.0000   1.0000   1.0000   1.0000   1.0000   1.0000   1.0000
     1.0000   1.0000   1.0000   1.0000   1.0000   1.0014  -0.0061  -0.0000
    -0.0000  -0.0000

          k = 0.0000 0.5052 0.0000 ( 20171 PWs)   bands (ev):

   -24.2594 -24.2537 -24.0896 -24.0167 -23.9466 -23.8222 -23.7552 -23.7464
   -23.6537 -23.6357 -10.7707  -8.8419  -4.6006  -2.8546  -1.7282  -1.0108
     2.7053   3.4514

     occupation numbers 
     1.0000   1.0000   1.0000   1.0000   1.0000   1.0000   1.0000   1.0000
     1.0000   1.0000   1.0000   1.0000   1.0000   1.0052  -0.0076  -0.0000
    -0.0000  -0.0000

          k = 0.0000 0.5292 0.0000 ( 20142 PWs)   bands (ev):

   -24.2619 -24.2561 -24.0892 -24.0171 -23.9450 -23.8239 -23.7553 -23.7460
   -23.6508 -23.6332 -10.6924  -8.9575  -4.6201  -2.7796  -1.7414  -1.1141
     2.8578   3.5178

     occupation numbers 
     1.0000   1.0000   1.0000   1.0000   1.0000   1.0000   1.0000   1.0000
     1.0000   1.0000   1.0000   1.0000   1.0000   1.0126  -0.0089  -0.0000
    -0.0000  -0.0000

          k = 0.0000 0.5533 0.0000 ( 20140 PWs)   bands (ev):

   -24.2634 -24.2575 -24.0889 -24.0174 -23.9440 -23.8250 -23.7554 -23.7457
   -23.6490 -23.6317 -10.6398  -9.0325  -4.6319  -2.7294  -1.7494  -1.1812
     3.0009   3.4521

     occupation numbers 
     1.0000   1.0000   1.0000   1.0000   1.0000   1.0000   1.0000   1.0000
     1.0000   1.0000   1.0000   1.0000   1.0000   1.0201  -0.0098  -0.0000
    -0.0000  -0.0000

          k = 0.0000-0.5774 0.0000 ( 20152 PWs)   bands (ev):

   -24.2639 -24.2580 -24.0888 -24.0175 -23.9436 -23.8254 -23.7554 -23.7457
   -23.6484 -23.6312 -10.6211  -9.0587  -4.6358  -2.7117  -1.7521  -1.2047
     3.0796   3.3719

     occupation numbers 
     1.0000   1.0000   1.0000   1.0000   1.0000   1.0000   1.0000   1.0000
     1.0000   1.0000   1.0000   1.0000   1.0000   1.0230  -0.0101  -0.0000
    -0.0000  -0.0000

          k = 0.0208 0.0361 0.0000 ( 20033 PWs)   bands (ev):

   -24.1148 -24.1008 -24.1001 -23.9971 -23.9963 -23.8324 -23.8318 -23.7668
   -23.7659 -23.7087 -12.1953  -4.2805  -4.0623  -3.3771  -3.0025   0.6506
     0.7140   1.0261

     occupation numbers 
     1.0000   1.0000   1.0000   1.0000   1.0000   1.0000   1.0000   1.0000
     1.0000   1.0000   1.0000   1.0000   1.0000   1.0000   1.0005  -0.0000
    -0.0000  -0.0000

          k = 0.0208 0.0601 0.0000 ( 20025 PWs)   bands (ev):

   -24.1163 -24.1048 -24.1030 -23.9975 -23.9956 -23.8283 -23.8269 -23.7676
   -23.7656 -23.7085 -12.1805  -4.3219  -4.2651  -3.4105  -2.7617   0.6347
     0.7781   1.0476

     occupation numbers 
     1.0000   1.0000   1.0000   1.0000   1.0000   1.0000   1.0000   1.0000
     1.0000   1.0000   1.0000   1.0000   1.0000   1.0000   1.0150  -0.0000
    -0.0000  -0.0000

          k = 0.0208 0.0842 0.0000 ( 20005 PWs)   bands (ev):

   -24.1200 -24.1105 -24.1054 -23.9980 -23.9946 -23.8226 -23.8200 -23.7688
   -23.7650 -23.7082 -12.1583  -4.5996  -4.2422  -3.4584  -2.5154   0.6199
     0.8722   1.0778

     occupation numbers 
     1.0000   1.0000   1.0000   1.0000   1.0000   1.0000   1.0000   1.0000
     1.0000   1.0000   1.0000   1.0000   1.0000   1.0000   1.0076  -0.0000
    -0.0000  -0.0000

          k = 0.0208 0.1083 0.0000 ( 20014 PWs)   bands (ev):

   -24.1264 -24.1177 -24.1065 -23.9988 -23.9933 -23.8156 -23.8114 -23.7703
   -23.7643 -23.7077 -12.1288  -4.8833  -4.2117  -3.5186  -2.2794   0.6149
     0.9938   1.1158

     occupation numbers 
     1.0000   1.0000   1.0000   1.0000   1.0000   1.0000   1.0000   1.0000
     1.0000   1.0000   1.0000   1.0000   1.0000   1.0000   0.5102  -0.0000
    -0.0000  -0.0000

          k = 0.0208 0.1323 0.0000 ( 20056 PWs)   bands (ev):

   -24.1349 -24.1260 -24.1066 -23.9996 -23.9916 -23.8077 -23.8014 -23.7722
   -23.7634 -23.7069 -12.0920  -5.1684  -4.1736  -3.5885  -2.0638   0.6291
     1.1396   1.1621

     occupation numbers 
     1.0000   1.0000   1.0000   1.0000   1.0000   1.0000   1.0000   1.0000
     1.0000   1.0000   1.0000   1.0000   1.0000   1.0000   0.0152  -0.0000
    -0.0000  -0.0000

          k = 0.0208 0.1564 0.0000 ( 20078 PWs)   bands (ev):

   -24.1446 -24.1352 -24.1061 -24.0007 -23.9896 -23.7994 -23.7905 -23.7744
   -23.7624 -23.7058 -12.0478  -5.4525  -4.1282  -3.6657  -1.8769   0.6718
     1.2135   1.3102

     occupation numbers 
     1.0000   1.0000   1.0000   1.0000   1.0000   1.0000   1.0000   1.0000
     1.0000   1.0000   1.0000   1.0000   1.0000   1.0000  -0.0291  -0.0000
    -0.0000  -0.0000

          k = 0.0208 0.1804 0.0000 ( 20090 PWs)   bands (ev):

   -24.1549 -24.1450 -24.1053 -24.0018 -23.9874 -23.7910 -23.7790 -23.7770
   -23.7613 -23.7040 -11.9965  -5.7343  -4.0754  -3.7478  -1.7253   0.7511
     1.2753   1.4880

     occupation numbers 
     1.0000   1.0000   1.0000   1.0000   1.0000   1.0000   1.0000   1.0000
     1.0000   1.0000   1.0000   1.0000   1.0000   1.0000  -0.0074  -0.0000
    -0.0000  -0.0000

          k = 0.0208 0.2045 0.0000 ( 20082 PWs)   bands (ev):

   -24.1657 -24.1550 -24.1043 -24.0030 -23.9849 -23.7831 -23.7798 -23.7672
   -23.7601 -23.7016 -11.9380  -6.0126  -4.0155  -3.8326  -1.6127   0.8710
     1.2999   1.3447

     occupation numbers 
     1.0000   1.0000   1.0000   1.0000   1.0000   1.0000   1.0000   1.0000
     1.0000   1.0000   1.0000   1.0000   1.0000   1.0000  -0.0015  -0.0000
    -0.0000  -0.0000

          k = 0.0208 0.2285 0.0000 ( 20070 PWs)   bands (ev):

   -24.1766 -24.1651 -24.1031 -24.0043 -23.9821 -23.7829 -23.7759 -23.7588
   -23.7552 -23.6983 -11.8725  -6.2866  -3.9486  -3.9184  -1.5384   1.0297
     1.1046   1.4265

     occupation numbers 
     1.0000   1.0000   1.0000   1.0000   1.0000   1.0000   1.0000   1.0000
     1.0000   1.0000   1.0000   1.0000   1.0000   1.0000  -0.0004  -0.0000
    -0.0000  -0.0000

          k = 0.0208 0.2526 0.0000 ( 20092 PWs)   bands (ev):

   -24.1873 -24.1751 -24.1019 -24.0056 -23.9792 -23.7863 -23.7699 -23.7574
   -23.7433 -23.6940 -11.8002  -6.5556  -4.0035  -3.8749  -1.4973   0.9046
     1.2169   1.5264

     occupation numbers 
     1.0000   1.0000   1.0000   1.0000   1.0000   1.0000   1.0000   1.0000
     1.0000   1.0000   1.0000   1.0000   1.0000   1.0000  -0.0002  -0.0000
    -0.0000  -0.0000

          k = 0.0208 0.2766 0.0000 ( 20099 PWs)   bands (ev):

   -24.1978 -24.1849 -24.1005 -24.0070 -23.9760 -23.7898 -23.7650 -23.7561
   -23.7317 -23.6887 -11.7212  -6.8189  -4.0866  -3.7947  -1.4827   0.7019
     1.4080   1.6627

     occupation numbers 
     1.0000   1.0000   1.0000   1.0000   1.0000   1.0000   1.0000   1.0000
     1.0000   1.0000   1.0000   1.0000   1.0000   1.0000  -0.0001  -0.0000
    -0.0000  -0.0000

          k = 0.0208 0.3007 0.0000 ( 20101 PWs)   bands (ev):

   -24.2079 -24.1943 -24.0992 -24.0083 -23.9727 -23.7936 -23.7613 -23.7548
   -23.7206 -23.6826 -11.6357  -7.0758  -4.1665  -3.7083  -1.4871   0.4984
     1.5683   1.8627

     occupation numbers 
     1.0000   1.0000   1.0000   1.0000   1.0000   1.0000   1.0000   1.0000
     1.0000   1.0000   1.0000   1.0000   1.0000   1.0000  -0.0002  -0.0000
    -0.0000  -0.0000

          k = 0.0208 0.3248 0.0000 ( 20105 PWs)   bands (ev):

   -24.2175 -24.2032 -24.0978 -24.0097 -23.9693 -23.7974 -23.7587 -23.7534
   -23.7099 -23.6759 -11.5442  -7.3256  -4.2423  -3.6162  -1.5043   0.2956
     1.6990   2.1196

     occupation numbers 
     1.0000   1.0000   1.0000   1.0000   1.0000   1.0000   1.0000   1.0000
     1.0000   1.0000   1.0000   1.0000   1.0000   1.0000  -0.0002  -0.0000
    -0.0000  -0.0000

          k = 0.0208 0.3488 0.0000 ( 20125 PWs)   bands (ev):

   -24.2264 -24.2116 -24.0965 -24.0109 -23.9658 -23.8012 -23.7570 -23.7522
   -23.6999 -23.6689 -11.4471  -7.5675  -4.3133  -3.5189  -1.5294   0.0953
     1.8206   2.4066

     occupation numbers 
     1.0000   1.0000   1.0000   1.0000   1.0000   1.0000   1.0000   1.0000
     1.0000   1.0000   1.0000   1.0000   1.0000   1.0000  -0.0004  -0.0000
    -0.0000  -0.0000

          k = 0.0208 0.3729 0.0000 ( 20133 PWs)   bands (ev):

   -24.2347 -24.2193 -24.0952 -24.0122 -23.9623 -23.8051 -23.7559 -23.7510
   -23.6907 -23.6620 -11.3451  -7.8006  -4.3787  -3.4171  -1.5586  -0.1012
     1.9431   2.7089

     occupation numbers 
     1.0000   1.0000   1.0000   1.0000   1.0000   1.0000   1.0000   1.0000
     1.0000   1.0000   1.0000   1.0000   1.0000   1.0000  -0.0006  -0.0000
    -0.0000  -0.0000

          k = 0.0208 0.3969 0.0000 ( 20141 PWs)   bands (ev):

   -24.2422 -24.2263 -24.0940 -24.0133 -23.9588 -23.8088 -23.7553 -23.7498
   -23.6823 -23.6552 -11.2391  -8.0237  -4.4380  -3.3119  -1.5890  -0.2920
     2.0697   2.9884

     occupation numbers 
     1.0000   1.0000   1.0000   1.0000   1.0000   1.0000   1.0000   1.0000
     1.0000   1.0000   1.0000   1.0000   1.0000   1.0000  -0.0010  -0.0000
    -0.0000  -0.0000

          k = 0.0208 0.4210 0.0000 ( 20157 PWs)   bands (ev):

   -24.2489 -24.2325 -24.0928 -24.0143 -23.9555 -23.8125 -23.7550 -23.7488
   -23.6748 -23.6490 -11.1305  -8.2352  -4.4908  -3.2048  -1.6188  -0.4753
     2.2018   3.0970

     occupation numbers 
     1.0000   1.0000   1.0000   1.0000   1.0000   1.0000   1.0000   1.0000
     1.0000   1.0000   1.0000   1.0000   1.0000   1.0000  -0.0017  -0.0000
    -0.0000  -0.0000

          k = 0.0208 0.4450 0.0000 ( 20173 PWs)   bands (ev):

   -24.2547 -24.2380 -24.0918 -24.0152 -23.9524 -23.8158 -23.7549 -23.7479
   -23.6683 -23.6434 -11.0212  -8.4330  -4.5366  -3.0975  -1.6463  -0.6484
     2.3397   3.2047

     occupation numbers 
     1.0000   1.0000   1.0000   1.0000   1.0000   1.0000   1.0000   1.0000
     1.0000   1.0000   1.0000   1.0000   1.0000   1.0001  -0.0025  -0.0000
    -0.0000  -0.0000

          k = 0.0208 0.4691 0.0000 ( 20164 PWs)   bands (ev):

   -24.2596 -24.2425 -24.0909 -24.0160 -23.9497 -23.8188 -23.7549 -23.7472
   -23.6627 -23.6385 -10.9142  -8.6140  -4.5753  -2.9932  -1.6706  -0.8083
     2.4835   3.3067

     occupation numbers 
     1.0000   1.0000   1.0000   1.0000   1.0000   1.0000   1.0000   1.0000
     1.0000   1.0000   1.0000   1.0000   1.0000   1.0006  -0.0036  -0.0000
    -0.0000  -0.0000

          k = 0.0208 0.4932 0.0000 ( 20162 PWs)   bands (ev):

   -24.2636 -24.2462 -24.0902 -24.0166 -23.9473 -23.8214 -23.7550 -23.7465
   -23.6583 -23.6346 -10.8137  -8.7739  -4.6065  -2.8959  -1.6908  -0.9503
     2.6322   3.3961

     occupation numbers 
     1.0000   1.0000   1.0000   1.0000   1.0000   1.0000   1.0000   1.0000
     1.0000   1.0000   1.0000   1.0000   1.0000   1.0030  -0.0048  -0.0000
    -0.0000  -0.0000

          k = 0.0208 0.5172 0.0000 ( 20145 PWs)   bands (ev):

   -24.2666 -24.2490 -24.0896 -24.0171 -23.9454 -23.8235 -23.7551 -23.7460
   -23.6549 -23.6315 -10.7259  -8.9062  -4.6300  -2.8115  -1.7064  -1.0684
     2.7844   3.4664

     occupation numbers 
     1.0000   1.0000   1.0000   1.0000   1.0000   1.0000   1.0000   1.0000
     1.0000   1.0000   1.0000   1.0000   1.0000   1.0089  -0.0058  -0.0000
    -0.0000  -0.0000

          k = 0.0208 0.5413 0.0000 ( 20146 PWs)   bands (ev):

   -24.2686 -24.2509 -24.0893 -24.0174 -23.9441 -23.8249 -23.7552 -23.7457
   -23.6526 -23.6294 -10.6592  -9.0027  -4.6458  -2.7478  -1.7170  -1.1547
     2.9346   3.5170

     occupation numbers 
     1.0000   1.0000   1.0000   1.0000   1.0000   1.0000   1.0000   1.0000
     1.0000   1.0000   1.0000   1.0000   1.0000   1.0171  -0.0067  -0.0000
    -0.0000  -0.0000

          k = 0.0208 0.5653 0.0000 ( 20140 PWs)   bands (ev):

   -24.2696 -24.2518 -24.0891 -24.0176 -23.9434 -23.8256 -23.7553 -23.7456
   -23.6515 -23.6284 -10.6227  -9.0541  -4.6537  -2.7131  -1.7223  -1.2008
     3.0588   3.3976

     occupation numbers 
     1.0000   1.0000   1.0000   1.0000   1.0000   1.0000   1.0000   1.0000
     1.0000   1.0000   1.0000   1.0000   1.0000   1.0228  -0.0071  -0.0000
    -0.0000  -0.0000

          k = 0.0417 0.0722 0.0000 ( 20017 PWs)   bands (ev):

   -24.1197 -24.1072 -24.1071 -23.9979 -23.9948 -23.8235 -23.8211 -23.7686
   -23.7651 -23.7083 -12.1620  -4.5580  -4.2460  -3.4526  -2.5489   0.6170
     0.8610   1.0728

     occupation numbers 
     1.0000   1.0000   1.0000   1.0000   1.0000   1.0000   1.0000   1.0000
     1.0000   1.0000   1.0000   1.0000   1.0000   1.0000   1.0254  -0.0000
    -0.0000  -0.0000

          k = 0.0417 0.0962 0.0000 ( 20012 PWs)   bands (ev):

   -24.1259 -24.1130 -24.1082 -23.9986 -23.9936 -23.8173 -23.8134 -23.7699
   -23.7644 -23.7078 -12.1362  -4.8172  -4.2193  -3.5090  -2.3258   0.6021
     0.9749   1.1061

     occupation numbers 
     1.0000   1.0000   1.0000   1.0000   1.0000   1.0000   1.0000   1.0000
     1.0000   1.0000   1.0000   1.0000   1.0000   1.0000   0.6516  -0.0000
    -0.0000  -0.0000

          k = 0.0417 0.1203 0.0000 ( 20039 PWs)   bands (ev):

   -24.1343 -24.1201 -24.1082 -23.9994 -23.9921 -23.8100 -23.8044 -23.7717
   -23.7636 -23.7072 -12.1030  -5.0866  -4.1850  -3.5769  -2.1095   0.5989
     1.1163   1.1474

     occupation numbers 
     1.0000   1.0000   1.0000   1.0000   1.0000   1.0000   1.0000   1.0000
     1.0000   1.0000   1.0000   1.0000   1.0000   1.0000   0.0745  -0.0000
    -0.0000  -0.0000

          k = 0.0417 0.1443 0.0000 ( 20063 PWs)   bands (ev):

   -24.1440 -24.1282 -24.1077 -24.0004 -23.9902 -23.8019 -23.7942 -23.7737
   -23.7627 -23.7061 -12.0625  -5.3603  -4.1433  -3.6535  -1.9116   0.6169
     1.1943   1.2843

     occupation numbers 
     1.0000   1.0000   1.0000   1.0000   1.0000   1.0000   1.0000   1.0000
     1.0000   1.0000   1.0000   1.0000   1.0000   1.0000  -0.0337  -0.0000
    -0.0000  -0.0000

          k = 0.0417 0.1684 0.0000 ( 20081 PWs)   bands (ev):

   -24.1546 -24.1371 -24.1069 -24.0015 -23.9881 -23.7937 -23.7833 -23.7761
   -23.7616 -23.7046 -12.0148  -5.6350  -4.0942  -3.7363  -1.7415   0.6653
     1.2499   1.4733

     occupation numbers 
     1.0000   1.0000   1.0000   1.0000   1.0000   1.0000   1.0000   1.0000
     1.0000   1.0000   1.0000   1.0000   1.0000   1.0000  -0.0089  -0.0000
    -0.0000  -0.0000

          k = 0.0417 0.1925 0.0000 ( 20089 PWs)   bands (ev):

   -24.1656 -24.1464 -24.1058 -24.0026 -23.9857 -23.7856 -23.7789 -23.7721
   -23.7604 -23.7023 -11.9599  -5.9085  -4.0379  -3.8229  -1.6059   0.7513
     1.3135   1.3707

     occupation numbers 
     1.0000   1.0000   1.0000   1.0000   1.0000   1.0000   1.0000   1.0000
     1.0000   1.0000   1.0000   1.0000   1.0000   1.0000  -0.0014  -0.0000
    -0.0000  -0.0000

          k = 0.0417 0.2165 0.0000 ( 20075 PWs)   bands (ev):

   -24.1767 -24.1559 -24.1047 -24.0039 -23.9831 -23.7819 -23.7780 -23.7607
   -23.7592 -23.6992 -11.8979  -6.1794  -3.9745  -3.9112  -1.5080   0.8782
     1.1813   1.3860

     occupation numbers 
     1.0000   1.0000   1.0000   1.0000   1.0000   1.0000   1.0000   1.0000
     1.0000   1.0000   1.0000   1.0000   1.0000   1.0000  -0.0002  -0.0000
    -0.0000  -0.0000

          k = 0.0417 0.2406 0.0000 ( 20096 PWs)   bands (ev):

   -24.1879 -24.1654 -24.1035 -24.0052 -23.9802 -23.7851 -23.7715 -23.7578
   -23.7493 -23.6951 -11.8290  -6.4466  -3.9994  -3.9042  -1.4462   0.9857
     1.0435   1.4692

     occupation numbers 
     1.0000   1.0000   1.0000   1.0000   1.0000   1.0000   1.0000   1.0000
     1.0000   1.0000   1.0000   1.0000   1.0000   1.0000  -0.0001  -0.0000
    -0.0000  -0.0000

          k = 0.0417 0.2646 0.0000 ( 20107 PWs)   bands (ev):

   -24.1988 -24.1749 -24.1021 -24.0066 -23.9771 -23.7886 -23.7661 -23.7565
   -23.7382 -23.6898 -11.7533  -6.7092  -4.0860  -3.8272  -1.4150   0.7864
     1.2377   1.5679

     occupation numbers 
     1.0000   1.0000   1.0000   1.0000   1.0000   1.0000   1.0000   1.0000
[...]

          k = 0.2083 0.3608 0.0000 ( 20119 PWs)   bands (ev):

   -24.2867 -24.1745 -24.1114 -24.0182 -23.9478 -23.8197 -23.7454 -23.7381
   -23.7246 -23.6176 -11.1360  -8.1117  -5.0651  -3.2081  -0.3764  -0.0348
     1.2059   2.1957

     occupation numbers 
     1.0000   1.0000   1.0000   1.0000   1.0000   1.0000   1.0000   1.0000
     1.0000   1.0000   1.0000   1.0000   1.0000   1.0000  -0.0000  -0.0000
    -0.0000  -0.0000

          k = 0.2083 0.3849 0.0000 ( 20124 PWs)   bands (ev):

   -24.2951 -24.1750 -24.1121 -24.0196 -23.9432 -23.8246 -23.7440 -23.7381
   -23.7216 -23.6087 -11.0321  -8.2901  -5.1675  -3.1053  -0.5322   0.0805
     1.3311   2.3104

     occupation numbers 
     1.0000   1.0000   1.0000   1.0000   1.0000   1.0000   1.0000   1.0000
     1.0000   1.0000   1.0000   1.0000   1.0000   1.0001  -0.0000  -0.0000
    -0.0000  -0.0000

          k = 0.2083 0.4090 0.0000 ( 20133 PWs)   bands (ev):

   -24.3028 -24.1756 -24.1127 -24.0209 -23.9384 -23.8296 -23.7428 -23.7387
   -23.7185 -23.6005 -10.9239  -8.4652  -5.2592  -2.9988  -0.6866   0.1544
     1.5102   2.4316

     occupation numbers 
     1.0000   1.0000   1.0000   1.0000   1.0000   1.0000   1.0000   1.0000
     1.0000   1.0000   1.0000   1.0000   1.0000   1.0006  -0.0000  -0.0000
    -0.0000  -0.0000

          k = 0.2083 0.4330 0.0000 ( 20136 PWs)   bands (ev):

   -24.3095 -24.1762 -24.1131 -24.0221 -23.9337 -23.8344 -23.7416 -23.7394
   -23.7155 -23.5933 -10.8125  -8.6357  -5.3394  -2.8897  -0.8381   0.1954
     1.7325   2.5588

     occupation numbers 
     1.0000   1.0000   1.0000   1.0000   1.0000   1.0000   1.0000   1.0000
     1.0000   1.0000   1.0000   1.0000   1.0000   1.0032  -0.0000  -0.0000
    -0.0000  -0.0000

          k = 0.2083 0.4571 0.0000 ( 20137 PWs)   bands (ev):

   -24.3153 -24.1769 -24.1134 -24.0231 -23.9292 -23.8391 -23.7407 -23.7402
   -23.7129 -23.5870 -10.6998  -8.7991  -5.4077  -2.7798  -0.9845   0.2149
     1.9840   2.5646

     occupation numbers 
     1.0000   1.0000   1.0000   1.0000   1.0000   1.0000   1.0000   1.0000
     1.0000   1.0000   1.0000   1.0000   1.0000   1.0126  -0.0000  -0.0000
    -0.0000  -0.0000

          k = 0.2083 0.4811 0.0000 ( 20142 PWs)   bands (ev):

   -24.3201 -24.1775 -24.1135 -24.0240 -23.9250 -23.8435 -23.7409 -23.7398
   -23.7106 -23.5817 -10.5886  -8.9524  -5.4639  -2.6720  -1.1228   0.2222
     2.2509   2.5140

     occupation numbers 
     1.0000   1.0000   1.0000   1.0000   1.0000   1.0000   1.0000   1.0000
     1.0000   1.0000   1.0000   1.0000   1.0000   1.0296  -0.0000  -0.0000
    -0.0000  -0.0000

          k = 0.2083 0.5052 0.0000 ( 20163 PWs)   bands (ev):

   -24.3239 -24.1780 -24.1136 -24.0247 -23.9212 -23.8473 -23.7415 -23.7392
   -23.7088 -23.5776 -10.4835  -9.0906  -5.5078  -2.5707  -1.2481   0.2233
     2.4733   2.5182

     occupation numbers 
     1.0000   1.0000   1.0000   1.0000   1.0000   1.0000   1.0000   1.0000
     1.0000   1.0000   1.0000   1.0000   1.0000   1.0317  -0.0000  -0.0000
    -0.0000  -0.0000

          k = 0.2083 0.5292 0.0000 ( 20148 PWs)   bands (ev):

   -24.3266 -24.1784 -24.1136 -24.0252 -23.9183 -23.8504 -23.7420 -23.7387
   -23.7075 -23.5746 -10.3925  -9.2053  -5.5392  -2.4835  -1.3525   0.2220
     2.4436   2.7616

     occupation numbers 
     1.0000   1.0000   1.0000   1.0000   1.0000   1.0000   1.0000   1.0000
     1.0000   1.0000   1.0000   1.0000   1.0000   0.9796  -0.0000  -0.0000
    -0.0000  -0.0000

          k = 0.2083 0.5533 0.0000 ( 20157 PWs)   bands (ev):

   -24.3282 -24.1786 -24.1136 -24.0255 -23.9163 -23.8524 -23.7422 -23.7384
   -23.7067 -23.5728 -10.3279  -9.2844  -5.5581  -2.4219  -1.4246   0.2205
     2.4256   2.9356

     occupation numbers 
     1.0000   1.0000   1.0000   1.0000   1.0000   1.0000   1.0000   1.0000
     1.0000   1.0000   1.0000   1.0000   1.0000   0.8890  -0.0000  -0.0000
    -0.0000  -0.0000

          k = 0.2083 0.5774 0.0000 ( 20149 PWs)   bands (ev):

   -24.3287 -24.1787 -24.1136 -24.0256 -23.9157 -23.8531 -23.7423 -23.7383
   -23.7065 -23.5722 -10.3039  -9.3131  -5.5644  -2.3992  -1.4508   0.2199
     2.4196   2.9962

     occupation numbers 
     1.0000   1.0000   1.0000   1.0000   1.0000   1.0000   1.0000   1.0000
     1.0000   1.0000   1.0000   1.0000   1.0000   0.8426  -0.0001  -0.0000
    -0.0000  -0.0000

          k = 0.2292 0.3969 0.0000 ( 20141 PWs)   bands (ev):

   -24.3032 -24.1742 -24.1135 -24.0210 -23.9383 -23.8297 -23.7427 -23.7376
   -23.7202 -23.6002 -10.9262  -8.4582  -5.2709  -3.0010  -0.6806   0.2442
     1.4105   2.4274

     occupation numbers 
     1.0000   1.0000   1.0000   1.0000   1.0000   1.0000   1.0000   1.0000
     1.0000   1.0000   1.0000   1.0000   1.0000   1.0005  -0.0000  -0.0000
    -0.0000  -0.0000

          k = 0.2292 0.4210 0.0000 ( 20136 PWs)   bands (ev):

   -24.3104 -24.1735 -24.1147 -24.0223 -23.9333 -23.8349 -23.7415 -23.7376
   -23.7185 -23.5925 -10.8163  -8.6235  -5.3628  -2.8932  -0.8278   0.3637
     1.5460   2.5509

     occupation numbers 
     1.0000   1.0000   1.0000   1.0000   1.0000   1.0000   1.0000   1.0000
     1.0000   1.0000   1.0000   1.0000   1.0000   1.0031  -0.0000  -0.0000
    -0.0000  -0.0000

          k = 0.2292 0.4450 0.0000 ( 20159 PWs)   bands (ev):

   -24.3166 -24.1729 -24.1158 -24.0234 -23.9284 -23.8399 -23.7404 -23.7379
   -23.7167 -23.5857 -10.7036  -8.7844  -5.4425  -2.7832  -0.9722   0.4391
     1.7352   2.5280

     occupation numbers 
     1.0000   1.0000   1.0000   1.0000   1.0000   1.0000   1.0000   1.0000
     1.0000   1.0000   1.0000   1.0000   1.0000   1.0121  -0.0000  -0.0000
    -0.0000  -0.0000

          k = 0.2292 0.4691 0.0000 ( 20159 PWs)   bands (ev):

   -24.3219 -24.1725 -24.1166 -24.0244 -23.9236 -23.8448 -23.7395 -23.7384
   -23.7150 -23.5800 -10.5903  -8.9386  -5.5094  -2.6730  -1.1115   0.4814
     1.9635   2.4660

     occupation numbers 
     1.0000   1.0000   1.0000   1.0000   1.0000   1.0000   1.0000   1.0000
     1.0000   1.0000   1.0000   1.0000   1.0000   1.0295  -0.0000  -0.0000
    -0.0000  -0.0000

          k = 0.2292 0.4932 0.0000 ( 20154 PWs)   bands (ev):

   -24.3261 -24.1722 -24.1173 -24.0252 -23.9192 -23.8493 -23.7390 -23.7388
   -23.7135 -23.5753 -10.4794  -9.0824  -5.5632  -2.5658  -1.2422   0.5030
     2.2121   2.4148

     occupation numbers 
     1.0000   1.0000   1.0000   1.0000   1.0000   1.0000   1.0000   1.0000
     1.0000   1.0000   1.0000   1.0000   1.0000   1.0306  -0.0000  -0.0000
    -0.0000  -0.0000

          k = 0.2292 0.5172 0.0000 ( 20141 PWs)   bands (ev):

   -24.3293 -24.1719 -24.1177 -24.0258 -23.9154 -23.8532 -23.7394 -23.7382
   -23.7123 -23.5717 -10.3770  -9.2099  -5.6038  -2.4674  -1.3586   0.5131
     2.3756   2.4596

     occupation numbers 
     1.0000   1.0000   1.0000   1.0000   1.0000   1.0000   1.0000   1.0000
     1.0000   1.0000   1.0000   1.0000   1.0000   0.9608  -0.0000  -0.0000
    -0.0000  -0.0000

          k = 0.2292 0.5413 0.0000 ( 20142 PWs)   bands (ev):

   -24.3315 -24.1718 -24.1180 -24.0262 -23.9126 -23.8561 -23.7397 -23.7378
   -23.7115 -23.5693 -10.2932  -9.3105  -5.6309  -2.3873  -1.4507   0.5174
     2.3492   2.6740

     occupation numbers 
     1.0000   1.0000   1.0000   1.0000   1.0000   1.0000   1.0000   1.0000
     1.0000   1.0000   1.0000   1.0000   1.0000   0.8157  -0.0001  -0.0000
    -0.0000  -0.0000

          k = 0.2292 0.5653 0.0000 ( 20143 PWs)   bands (ev):

   -24.3326 -24.1717 -24.1182 -24.0264 -23.9110 -23.8577 -23.7399 -23.7376
   -23.7111 -23.5681 -10.2438  -9.3683  -5.6444  -2.3403  -1.5037   0.5188
     2.3359   2.8046

     occupation numbers 
     1.0000   1.0000   1.0000   1.0000   1.0000   1.0000   1.0000   1.0000
     1.0000   1.0000   1.0000   1.0000   1.0000   0.6936  -0.0002  -0.0000
    -0.0000  -0.0000

          k = 0.2500 0.4330 0.0000 ( 20149 PWs)   bands (ev):

   -24.3170 -24.1715 -24.1167 -24.0235 -23.9281 -23.8402 -23.7403 -23.7370
   -23.7182 -23.5853 -10.7049  -8.7793  -5.4543  -2.7843  -0.9679   0.5369
     1.6292   2.5156

     occupation numbers 
     1.0000   1.0000   1.0000   1.0000   1.0000   1.0000   1.0000   1.0000
     1.0000   1.0000   1.0000   1.0000   1.0000   1.0120  -0.0000  -0.0000
    -0.0000  -0.0000

          k = 0.2500 0.4571 0.0000 ( 20155 PWs)   bands (ev):

   -24.3227 -24.1697 -24.1184 -24.0246 -23.9229 -23.8455 -23.7393 -23.7368
   -23.7176 -23.5791 -10.5912  -8.9313  -5.5326  -2.6736  -1.1055   0.6616
     1.7688   2.4417

     occupation numbers 
     1.0000   1.0000   1.0000   1.0000   1.0000   1.0000   1.0000   1.0000
     1.0000   1.0000   1.0000   1.0000   1.0000   1.0294  -0.0000  -0.0000
    -0.0000  -0.0000

          k = 0.2500 0.4811 0.0000 ( 20153 PWs)   bands (ev):

   -24.3275 -24.1681 -24.1200 -24.0255 -23.9180 -23.8506 -23.7385 -23.7368
   -23.7169 -23.5739 -10.4771  -9.0769  -5.5974  -2.5631  -1.2382   0.7395
     1.9586   2.3791

     occupation numbers 
     1.0000   1.0000   1.0000   1.0000   1.0000   1.0000   1.0000   1.0000
     1.0000   1.0000   1.0000   1.0000   1.0000   1.0299  -0.0000  -0.0000
    -0.0000  -0.0000

          k = 0.2500 0.5052 0.0000 ( 20149 PWs)   bands (ev):

   -24.3312 -24.1668 -24.1212 -24.0262 -23.9133 -23.8553 -23.7378 -23.7370
   -23.7162 -23.5698 -10.3667  -9.2121  -5.6480  -2.4566  -1.3620   0.7831
     2.1771   2.3294

     occupation numbers 
     1.0000   1.0000   1.0000   1.0000   1.0000   1.0000   1.0000   1.0000
     1.0000   1.0000   1.0000   1.0000   1.0000   0.9464  -0.0000  -0.0000
    -0.0000  -0.0000

          k = 0.2500 0.5292 0.0000 ( 20133 PWs)   bands (ev):

   -24.3339 -24.1659 -24.1222 -24.0267 -23.9095 -23.8592 -23.7373 -23.7372
   -23.7156 -23.5668 -10.2673  -9.3294  -5.6844  -2.3613  -1.4699   0.8059
     2.2935   2.3938

     occupation numbers 
     1.0000   1.0000   1.0000   1.0000   1.0000   1.0000   1.0000   1.0000
     1.0000   1.0000   1.0000   1.0000   1.0000   0.7510  -0.0001  -0.0000
    -0.0000  -0.0000

          k = 0.2500 0.5533 0.0000 ( 20133 PWs)   bands (ev):

   -24.3355 -24.1653 -24.1228 -24.0270 -23.9068 -23.8620 -23.7374 -23.7370
   -23.7153 -23.5650 -10.1928  -9.4146  -5.7063  -2.2903  -1.5485   0.8165
     2.2718   2.5653

     occupation numbers 
     1.0000   1.0000   1.0000   1.0000   1.0000   1.0000   1.0000   1.0000
     1.0000   1.0000   1.0000   1.0000   1.0000   0.5439  -0.0005  -0.0000
    -0.0000  -0.0000

          k = 0.2500 0.5774 0.0000 ( 20123 PWs)   bands (ev):

   -24.3360 -24.1651 -24.1230 -24.0271 -23.9058 -23.8629 -23.7374 -23.7369
   -23.7151 -23.5644 -10.1639  -9.4471  -5.7136  -2.2629  -1.5784   0.8196
     2.2645   2.6335

     occupation numbers 
     1.0000   1.0000   1.0000   1.0000   1.0000   1.0000   1.0000   1.0000
     1.0000   1.0000   1.0000   1.0000   1.0000   0.4588  -0.0009  -0.0000
    -0.0000  -0.0000

          k = 0.2708 0.4691 0.0000 ( 20147 PWs)   bands (ev):

   -24.3279 -24.1667 -24.1210 -24.0256 -23.9175 -23.8510 -23.7384 -23.7359
   -23.7182 -23.5734 -10.4764  -9.0749  -5.6089  -2.5622  -1.2367   0.8452
     1.8471   2.3671

     occupation numbers 
     1.0000   1.0000   1.0000   1.0000   1.0000   1.0000   1.0000   1.0000
     1.0000   1.0000   1.0000   1.0000   1.0000   1.0296  -0.0000  -0.0000
    -0.0000  -0.0000

          k = 0.2708 0.4932 0.0000 ( 20151 PWs)   bands (ev):

   -24.3321 -24.1639 -24.1233 -24.0264 -23.9122 -23.8564 -23.7376 -23.7354
   -23.7185 -23.5688 -10.3616  -9.2129  -5.6705  -2.4513  -1.3635   0.9757
     1.9773   2.3061

     occupation numbers 
     1.0000   1.0000   1.0000   1.0000   1.0000   1.0000   1.0000   1.0000
     1.0000   1.0000   1.0000   1.0000   1.0000   0.9386  -0.0000  -0.0000
    -0.0000  -0.0000

          k = 0.2708 0.5172 0.0000 ( 20134 PWs)   bands (ev):

   -24.3353 -24.1616 -24.1254 -24.0270 -23.9073 -23.8613 -23.7370 -23.7351
   -23.7187 -23.5653 -10.2513  -9.3408  -5.7171  -2.3452  -1.4816   1.0548
     2.1455   2.2596

     occupation numbers 
     1.0000   1.0000   1.0000   1.0000   1.0000   1.0000   1.0000   1.0000
     1.0000   1.0000   1.0000   1.0000   1.0000   0.7072  -0.0001  -0.0000
    -0.0000  -0.0000

          k = 0.2708 0.5413 0.0000 ( 20117 PWs)   bands (ev):

   -24.3374 -24.1599 -24.1269 -24.0274 -23.9033 -23.8654 -23.7366 -23.7350
   -23.7188 -23.5630 -10.1549  -9.4489  -5.7484  -2.2530  -1.5818   1.0965
     2.2284   2.3136

     occupation numbers 
     1.0000   1.0000   1.0000   1.0000   1.0000   1.0000   1.0000   1.0000
     1.0000   1.0000   1.0000   1.0000   1.0000   0.4284  -0.0009  -0.0000
    -0.0000  -0.0000

          k = 0.2708 0.5653 0.0000 ( 20133 PWs)   bands (ev):

   -24.3385 -24.1589 -24.1277 -24.0277 -23.9009 -23.8678 -23.7364 -23.7349
   -23.7188 -23.5618 -10.0930  -9.5167  -5.7640  -2.1942  -1.6447   1.1140
     2.2127   2.4251

     occupation numbers 
     1.0000   1.0000   1.0000   1.0000   1.0000   1.0000   1.0000   1.0000
     1.0000   1.0000   1.0000   1.0000   1.0000   0.2574  -0.0025  -0.0000
    -0.0000  -0.0000

          k = 0.2917 0.5052 0.0000 ( 20137 PWs)   bands (ev):

   -24.3358 -24.1600 -24.1266 -24.0271 -23.9066 -23.8621 -23.7369 -23.7342
   -23.7200 -23.5648 -10.2458  -9.3446  -5.7282  -2.3397  -1.4856   1.1705
     2.0295   2.2483

     occupation numbers 
     1.0000   1.0000   1.0000   1.0000   1.0000   1.0000   1.0000   1.0000
     1.0000   1.0000   1.0000   1.0000   1.0000   0.6918  -0.0002  -0.0000
    -0.0000  -0.0000

          k = 0.2917 0.5292 0.0000 ( 20135 PWs)   bands (ev):

   -24.3384 -24.1565 -24.1296 -24.0277 -23.9013 -23.8674 -23.7364 -23.7332
   -23.7211 -23.5619 -10.1344  -9.4674  -5.7697  -2.2329  -1.5999   1.3054
     2.1160   2.2065

     occupation numbers 
     1.0000   1.0000   1.0000   1.0000   1.0000   1.0000   1.0000   1.0000
     1.0000   1.0000   1.0000   1.0000   1.0000   0.3672  -0.0012  -0.0000
    -0.0000  -0.0000

          k = 0.2917 0.5533 0.0000 ( 20132 PWs)   bands (ev):

   -24.3400 -24.1540 -24.1319 -24.0280 -23.8971 -23.8717 -23.7361 -23.7326
   -23.7219 -23.5602 -10.0403  -9.5684  -5.7947  -2.1430  -1.6942   1.3782
     2.1812   2.2077

     occupation numbers 
     1.0000   1.0000   1.0000   1.0000   1.0000   1.0000   1.0000   1.0000
     1.0000   1.0000   1.0000   1.0000   1.0000   0.1358  -0.0050  -0.0000
    -0.0000  -0.0000

          k = 0.2917 0.5774 0.0000 ( 20139 PWs)   bands (ev):

   -24.3405 -24.1530 -24.1328 -24.0281 -23.8953 -23.8735 -23.7360 -23.7324
   -23.7221 -23.5596  -9.9980  -9.6129  -5.8031  -2.1028  -1.7359   1.4002
     2.1728   2.2489

     occupation numbers 
     1.0000   1.0000   1.0000   1.0000   1.0000   1.0000   1.0000   1.0000
     1.0000   1.0000   1.0000   1.0000   1.0000   0.0641  -0.0084  -0.0000
    -0.0000  -0.0000

          k = 0.3125 0.5413 0.0000 ( 20133 PWs)   bands (ev):

   -24.3405 -24.1518 -24.1338 -24.0281 -23.8955 -23.8733 -23.7360 -23.7315
   -23.7232 -23.5596 -10.0199  -9.5884  -5.8050  -2.1231  -1.7135   1.5133
     2.0872   2.1707

     occupation numbers 
     1.0000   1.0000   1.0000   1.0000   1.0000   1.0000   1.0000   1.0000
     1.0000   1.0000   1.0000   1.0000   1.0000   0.0976  -0.0064  -0.0000
    -0.0000  -0.0000

          k = 0.3125 0.5653 0.0000 ( 20124 PWs)   bands (ev):

   -24.3415 -24.1482 -24.1371 -24.0283 -23.8907 -23.8780 -23.7358 -23.7301
   -23.7247 -23.5585  -9.9239  -9.6876  -5.8228  -2.0317  -1.8069   1.6412
     2.0634   2.1527

     occupation numbers 
     1.0000   1.0000   1.0000   1.0000   1.0000   1.0000   1.0000   1.0000
     1.0000   1.0000   1.0000   1.0000   1.0000  -0.0111  -0.0175  -0.0000
    -0.0000  -0.0000

          k = 0.3333 0.5774 0.0000 ( 20133 PWs)   bands (ev):

   -24.3421 -24.1426 -24.1426 -24.0284 -23.8844 -23.8844 -23.7357 -23.7275
   -23.7275 -23.5579  -9.8062  -9.8062  -5.8322  -1.9195  -1.9195   1.8734
     1.8734   2.1432

     occupation numbers 
     1.0000   1.0000   1.0000   1.0000   1.0000   1.0000   1.0000   1.0000
     1.0000   1.0000   1.0000   1.0000   1.0000  -0.0344  -0.0344  -0.0000
    -0.0000  -0.0000

     the Fermi energy is    -2.2762 ev

!    total energy              =    -326.39268094 Ry
     estimated scf accuracy    <          5.1E-09 Ry
     smearing contrib. (-TS)   =       0.00023993 Ry
     internal energy E=F+TS    =    -326.39292087 Ry

     The total energy is F=E-TS. E is the sum of the following terms:
     one-electron contribution =    -881.89199452 Ry
     hartree contribution      =     448.08977387 Ry
     xc contribution           =     -95.07136076 Ry
     ewald contribution        =     202.48066054 Ry

     convergence has been achieved in   7 iterations

     Writing all to output data dir ../tmp/stanene.save/

     init_run     :    110.27s CPU    163.93s WALL (       1 calls)
     electrons    :   5243.95s CPU   7680.03s WALL (       1 calls)

     Called by init_run:
     wfcinit      :    108.79s CPU    162.25s WALL (       1 calls)
     wfcinit:atom :      0.28s CPU      0.26s WALL (     217 calls)
     wfcinit:wfcr :    106.94s CPU    160.36s WALL (     217 calls)
     potinit      :      0.45s CPU      0.47s WALL (       1 calls)
     hinit0       :      0.43s CPU      0.45s WALL (       1 calls)

     Called by electrons:
     c_bands      :   4864.92s CPU   7128.22s WALL (       7 calls)
     sum_band     :    360.96s CPU    516.64s WALL (       7 calls)
     v_of_rho     :      1.37s CPU      1.44s WALL (       8 calls)
     v_h          :      0.11s CPU      0.11s WALL (       8 calls)
     v_xc         :      1.27s CPU      1.33s WALL (       8 calls)
     newd         :     16.47s CPU     33.56s WALL (       8 calls)
     mix_rho      :      0.30s CPU      0.31s WALL (       7 calls)

     Called by c_bands:
     init_us_2    :      4.70s CPU      4.72s WALL (    3255 calls)
     init_us_2:cp :      4.69s CPU      4.71s WALL (    3255 calls)
     cegterg      :   4730.09s CPU   7008.49s WALL (    1519 calls)

     Called by sum_band:
     sum_band:wei :      0.04s CPU      0.03s WALL (       7 calls)
     sum_band:loo :    356.95s CPU    511.56s WALL (       7 calls)
     sum_band:buf :      0.38s CPU      0.65s WALL (    1519 calls)
     sum_band:ini :      1.62s CPU      2.17s WALL (    1519 calls)
     sum_band:cal :    273.54s CPU    413.48s WALL (    1519 calls)
     sum_band:bec :      0.05s CPU      0.06s WALL (    1519 calls)
     addusdens    :      3.48s CPU      4.56s WALL (       7 calls)
                                        0.00s GPU  (       7 calls)
     addusd:skk   :      0.01s CPU      0.01s WALL (       7 calls)
                                        0.00s GPU  (       7 calls)

     Called by *egterg:
     cdiaghg      :    354.47s CPU    552.36s WALL (    8205 calls)
     cegterg:over :   1329.96s CPU   1909.83s WALL (    6686 calls)
     cegterg:upda :    158.29s CPU    299.14s WALL (    6686 calls)
     cegterg:last :    140.70s CPU    274.76s WALL (    3776 calls)
     h_psi        :   1953.40s CPU   2953.54s WALL (    8422 calls)
     s_psi        :     69.10s CPU    120.74s WALL (    8422 calls)
     g_psi        :      1.22s CPU      1.17s WALL (    6686 calls)

     Called by h_psi:
     h_psi:calbec :   1243.16s CPU   2029.29s WALL (    8422 calls)
     vloc_psi     :    498.15s CPU    459.51s WALL (    8422 calls)
     add_vuspsi   :    210.38s CPU    462.44s WALL (    8422 calls)

     General routines
     calbec       :   1516.63s CPU   2441.83s WALL (    9941 calls)
     fft          :      1.77s CPU      1.84s WALL (     102 calls)
     ffts         :      0.29s CPU      0.25s WALL (      15 calls)
     fftw         :    524.09s CPU    488.93s WALL (  206196 calls)
     interpolate  :      0.30s CPU      0.31s WALL (       8 calls)

     Parallel routines

     PWSCF        :      1h29m CPU      2h10m WALL


   This run was terminated on:  19:49:51  26Jun2024            

=------------------------------------------------------------------------------=
   JOB DONE.
=------------------------------------------------------------------------------=
