
     Program PWSCF v.6.7MaX starts on 23Jan2024 at 22:28:56 

     This program is part of the open-source Quantum ESPRESSO suite
     for quantum simulation of materials; please cite
         "P. Giannozzi et al., J. Phys.:Condens. Matter 21 395502 (2009);
         "P. Giannozzi et al., J. Phys.:Condens. Matter 29 465901 (2017);
          URL http://www.quantum-espresso.org", 
     in publications or presentations arising from this work. More details at
     http://www.quantum-espresso.org/quote

     Parallel version (MPI), running on     6 processors

     MPI processes distributed on     1 nodes
     R & G space division:  proc/nbgrp/npool/nimage =       6
     Waiting for input...
     Reading input from standard input

     Current dimensions of program PWSCF are:
     Max number of different atomic species (ntypx) = 10
     Max number of k-points (npk) =  40000
     Max angular momentum in pseudopotentials (lmaxx) =  3

     Subspace diagonalization in iterative solution of the eigenvalue problem:
     one sub-group per band group will be used
     scalapack distributed-memory algorithm (size of sub-group:  2*  2 procs)


     Parallelization info
     --------------------
     sticks:   dense  smooth     PW     G-vecs:    dense   smooth      PW
     Min         431     214     61                75909    26818    4015
     Max         432     215     62                75924    26841    4025
     Sum        2587    1285    367               455489   160939   24117



     bravais-lattice index     =            4
     lattice parameter (alat)  =       8.8506  a.u.
     unit-cell volume          =    2563.9136 (a.u.)^3
     number of atoms/cell      =            2
     number of atomic types    =            1
     number of electrons       =        28.00
     number of Kohn-Sham states=           18
     kinetic-energy cutoff     =      60.0000  Ry
     charge density cutoff     =     480.0000  Ry
     scf convergence threshold =      1.0E-06
     mixing beta               =       0.7000
     number of iterations used =            8  plain     mixing
     Exchange-correlation= SLA  PW   PBE  PBE
                           (   1   4   3   4   0   0   0)

     celldm(1)=   8.850584  celldm(2)=   0.000000  celldm(3)=   4.270286
     celldm(4)=   0.000000  celldm(5)=   0.000000  celldm(6)=   0.000000

     crystal axes: (cart. coord. in units of alat)
               a(1) = (   1.000000   0.000000   0.000000 )  
               a(2) = (  -0.500000   0.866025   0.000000 )  
               a(3) = (   0.000000   0.000000   4.270286 )  

     reciprocal axes: (cart. coord. in units 2 pi/alat)
               b(1) = (  1.000000  0.577350 -0.000000 )  
               b(2) = (  0.000000  1.154701  0.000000 )  
               b(3) = (  0.000000 -0.000000  0.234176 )  


     PseudoPot. # 1 for Sn read from file:
     ../pseudo/Sn_pbe_v1.uspp.F.UPF
     MD5 check sum: 4cf58ce39ec5d5d420df3dd08604eb00
     Pseudo is Ultrasoft + core correction, Zval = 14.0
     Generated by new atomic code, or converted to UPF format
     Using radial grid of  891 points,  6 beta functions with: 
                l(1) =   0
                l(2) =   0
                l(3) =   1
                l(4) =   1
                l(5) =   2
                l(6) =   2
     Q(r) pseudized with  6 coefficients,  rinner =    1.200   1.200   1.200
                                                       1.200   1.200

     atomic species   valence    mass     pseudopotential
        Sn            14.00   118.71000     Sn( 1.00)

      6 Sym. Ops. (no inversion) found



   Cartesian axes

     site n.     atom                  positions (alat units)
         1           Sn  tau(   1) = (   0.0000000   0.5773503   2.1351428  )
         2           Sn  tau(   2) = (   0.5000000   0.2886751   1.9552503  )

     number of k points=    61  Fermi-Dirac smearing, width (Ry)=  0.0100
                       cart. coord. in units 2pi/alat
        k(    1) = (   0.0000000   0.0000000   0.0000000), wk =   0.0034722
        k(    2) = (   0.0000000   0.0481125   0.0000000), wk =   0.0208333
        k(    3) = (   0.0000000   0.0962250   0.0000000), wk =   0.0208333
        k(    4) = (   0.0000000   0.1443376   0.0000000), wk =   0.0208333
        k(    5) = (   0.0000000   0.1924501   0.0000000), wk =   0.0208333
        k(    6) = (   0.0000000   0.2405626   0.0000000), wk =   0.0208333
        k(    7) = (   0.0000000   0.2886751   0.0000000), wk =   0.0208333
        k(    8) = (   0.0000000   0.3367877   0.0000000), wk =   0.0208333
        k(    9) = (   0.0000000   0.3849002   0.0000000), wk =   0.0208333
        k(   10) = (   0.0000000   0.4330127   0.0000000), wk =   0.0208333
        k(   11) = (   0.0000000   0.4811252   0.0000000), wk =   0.0208333
        k(   12) = (   0.0000000   0.5292377   0.0000000), wk =   0.0208333
        k(   13) = (   0.0000000  -0.5773503   0.0000000), wk =   0.0104167
        k(   14) = (   0.0416667   0.0721688   0.0000000), wk =   0.0208333
        k(   15) = (   0.0416667   0.1202813   0.0000000), wk =   0.0416667
        k(   16) = (   0.0416667   0.1683938   0.0000000), wk =   0.0416667
        k(   17) = (   0.0416667   0.2165064   0.0000000), wk =   0.0416667
        k(   18) = (   0.0416667   0.2646189   0.0000000), wk =   0.0416667
        k(   19) = (   0.0416667   0.3127314   0.0000000), wk =   0.0416667
        k(   20) = (   0.0416667   0.3608439   0.0000000), wk =   0.0416667
        k(   21) = (   0.0416667   0.4089564   0.0000000), wk =   0.0416667
        k(   22) = (   0.0416667   0.4570690   0.0000000), wk =   0.0416667
        k(   23) = (   0.0416667   0.5051815   0.0000000), wk =   0.0416667
        k(   24) = (   0.0416667   0.5532940   0.0000000), wk =   0.0416667
        k(   25) = (   0.0833333   0.1443376   0.0000000), wk =   0.0208333
        k(   26) = (   0.0833333   0.1924501   0.0000000), wk =   0.0416667
        k(   27) = (   0.0833333   0.2405626   0.0000000), wk =   0.0416667
        k(   28) = (   0.0833333   0.2886751   0.0000000), wk =   0.0416667
        k(   29) = (   0.0833333   0.3367877   0.0000000), wk =   0.0416667
        k(   30) = (   0.0833333   0.3849002   0.0000000), wk =   0.0416667
        k(   31) = (   0.0833333   0.4330127   0.0000000), wk =   0.0416667
        k(   32) = (   0.0833333   0.4811252   0.0000000), wk =   0.0416667
        k(   33) = (   0.0833333   0.5292377   0.0000000), wk =   0.0416667
        k(   34) = (   0.0833333   0.5773503   0.0000000), wk =   0.0208333
        k(   35) = (   0.1250000   0.2165064   0.0000000), wk =   0.0208333
        k(   36) = (   0.1250000   0.2646189   0.0000000), wk =   0.0416667
        k(   37) = (   0.1250000   0.3127314   0.0000000), wk =   0.0416667
        k(   38) = (   0.1250000   0.3608439   0.0000000), wk =   0.0416667
        k(   39) = (   0.1250000   0.4089564   0.0000000), wk =   0.0416667
        k(   40) = (   0.1250000   0.4570690   0.0000000), wk =   0.0416667
        k(   41) = (   0.1250000   0.5051815   0.0000000), wk =   0.0416667
        k(   42) = (   0.1250000   0.5532940   0.0000000), wk =   0.0416667
        k(   43) = (   0.1666667   0.2886751   0.0000000), wk =   0.0208333
        k(   44) = (   0.1666667   0.3367877   0.0000000), wk =   0.0416667
        k(   45) = (   0.1666667   0.3849002   0.0000000), wk =   0.0416667
        k(   46) = (   0.1666667   0.4330127   0.0000000), wk =   0.0416667
        k(   47) = (   0.1666667   0.4811252   0.0000000), wk =   0.0416667
        k(   48) = (   0.1666667   0.5292377   0.0000000), wk =   0.0416667
        k(   49) = (   0.1666667   0.5773503   0.0000000), wk =   0.0208333
        k(   50) = (   0.2083333   0.3608439   0.0000000), wk =   0.0208333
        k(   51) = (   0.2083333   0.4089564   0.0000000), wk =   0.0416667
        k(   52) = (   0.2083333   0.4570690   0.0000000), wk =   0.0416667
        k(   53) = (   0.2083333   0.5051815   0.0000000), wk =   0.0416667
        k(   54) = (   0.2083333   0.5532940   0.0000000), wk =   0.0416667
        k(   55) = (   0.2500000   0.4330127   0.0000000), wk =   0.0208333
        k(   56) = (   0.2500000   0.4811252   0.0000000), wk =   0.0416667
        k(   57) = (   0.2500000   0.5292377   0.0000000), wk =   0.0416667
        k(   58) = (   0.2500000   0.5773503   0.0000000), wk =   0.0208333
        k(   59) = (   0.2916667   0.5051815   0.0000000), wk =   0.0208333
        k(   60) = (   0.2916667   0.5532940   0.0000000), wk =   0.0416667
        k(   61) = (   0.3333333   0.5773503   0.0000000), wk =   0.0069444

     Dense  grid:   455489 G-vectors     FFT dimensions: (  64,  64, 270)

     Smooth grid:   160939 G-vectors     FFT dimensions: (  45,  45, 192)

     Estimated max dynamical RAM per process >     322.30 MB

     Estimated total dynamical RAM >       1.89 GB

     Initial potential from superposition of free atoms

     starting charge   25.99991, renormalised to   28.00000

     negative rho (up, down):  5.949E-04 0.000E+00
     Starting wfcs are   18 randomized atomic wfcs

     total cpu time spent up to now is        6.4 secs

     Self-consistent Calculation

     iteration #  1     ecut=    60.00 Ry     beta= 0.70
     Davidson diagonalization with overlap
     ethr =  1.00E-02,  avg # of iterations =  8.8

     negative rho (up, down):  1.500E-06 0.000E+00

     total cpu time spent up to now is       28.6 secs

     total energy              =    -325.45113079 Ry
     estimated scf accuracy    <       2.47901951 Ry

     iteration #  2     ecut=    60.00 Ry     beta= 0.70
     Davidson diagonalization with overlap
     ethr =  8.85E-03,  avg # of iterations =  2.1

     negative rho (up, down):  1.082E-05 0.000E+00

     total cpu time spent up to now is       48.0 secs

     total energy              =    -326.35761348 Ry
     estimated scf accuracy    <       0.39191936 Ry

     iteration #  3     ecut=    60.00 Ry     beta= 0.70
     Davidson diagonalization with overlap
     ethr =  1.40E-03,  avg # of iterations =  2.1

     negative rho (up, down):  4.092E-05 0.000E+00

     total cpu time spent up to now is       65.5 secs

     total energy              =    -326.41719190 Ry
     estimated scf accuracy    <       0.00647309 Ry

     iteration #  4     ecut=    60.00 Ry     beta= 0.70
     Davidson diagonalization with overlap
     c_bands:  1 eigenvalues not converged
     ethr =  2.31E-05,  avg # of iterations =  8.5

     negative rho (up, down):  7.802E-05 0.000E+00

     total cpu time spent up to now is       89.4 secs

     total energy              =    -326.41924379 Ry
     estimated scf accuracy    <       0.00030278 Ry

     iteration #  5     ecut=    60.00 Ry     beta= 0.70
     Davidson diagonalization with overlap
     ethr =  1.08E-06,  avg # of iterations =  5.4

     negative rho (up, down):  8.144E-05 0.000E+00

     total cpu time spent up to now is      106.1 secs

     total energy              =    -326.41926870 Ry
     estimated scf accuracy    <       0.00003279 Ry

     iteration #  6     ecut=    60.00 Ry     beta= 0.70
     Davidson diagonalization with overlap
     ethr =  1.17E-07,  avg # of iterations =  2.2

     negative rho (up, down):  8.450E-05 0.000E+00

     total cpu time spent up to now is      121.1 secs

     total energy              =    -326.41927585 Ry
     estimated scf accuracy    <       0.00002064 Ry

     iteration #  7     ecut=    60.00 Ry     beta= 0.70
     Davidson diagonalization with overlap
     ethr =  7.37E-08,  avg # of iterations =  2.0

     negative rho (up, down):  8.560E-05 0.000E+00

     total cpu time spent up to now is      135.7 secs

     End of self-consistent calculation

          k = 0.0000 0.0000 0.0000 ( 20025 PWs)   bands (ev):

   -23.5361 -23.5361 -23.4571 -23.4571 -23.4408 -23.3708 -23.2308 -23.2308
   -23.1755 -23.1755 -11.3820  -5.2793  -2.4130  -2.4130  -1.9517  -0.0676
     1.0829   1.0829

          k = 0.0000 0.0481 0.0000 ( 20035 PWs)   bands (ev):

   -23.5370 -23.5369 -23.4585 -23.4559 -23.4388 -23.3696 -23.2333 -23.2331
   -23.1741 -23.1732 -11.3673  -5.3026  -2.7016  -2.4455  -1.6448  -0.0665
     1.0530   1.1387

          k = 0.0000 0.0962 0.0000 ( 20005 PWs)   bands (ev):

   -23.5394 -23.5390 -23.4619 -23.4525 -23.4338 -23.3659 -23.2397 -23.2392
   -23.1709 -23.1674 -11.3233  -5.3806  -3.0877  -2.5361  -1.2091  -0.0666
     0.9980   1.2981

          k = 0.0000 0.1443 0.0000 ( 20065 PWs)   bands (ev):

   -23.5426 -23.5420 -23.4664 -23.4475 -23.4276 -23.3599 -23.2482 -23.2475
   -23.1671 -23.1598 -11.2501  -5.5340  -3.3969  -2.6678  -0.8453  -0.0767
     1.0027   1.5410

          k = 0.0000 0.1925 0.0000 ( 20113 PWs)   bands (ev):

   -23.5458 -23.5454 -23.4716 -23.4415 -23.4215 -23.3518 -23.2576 -23.2567
   -23.1639 -23.1518 -11.1485  -5.7788  -3.5912  -2.8218  -0.6445  -0.1002
     1.1483   2.1786

          k = 0.0000 0.2406 0.0000 ( 20071 PWs)   bands (ev):

   -23.5488 -23.5484 -23.4774 -23.4351 -23.4164 -23.3417 -23.2670 -23.2658
   -23.1617 -23.1438 -11.0191  -6.1056  -3.6710  -2.9823  -0.6312  -0.1301
     1.4089   2.2889

          k = 0.0000 0.2887 0.0000 ( 20087 PWs)   bands (ev):

   -23.5519 -23.5499 -23.4836 -23.4287 -23.4127 -23.3304 -23.2760 -23.2738
   -23.1609 -23.1365 -10.8634  -6.4847  -3.6610  -3.1372  -0.7356  -0.1793
     1.6474   2.4645

          k = 0.0000 0.3368 0.0000 ( 20109 PWs)   bands (ev):

   -23.5545 -23.5503 -23.4901 -23.4229 -23.4106 -23.3189 -23.2841 -23.2801
   -23.1615 -23.1299 -10.6839  -6.8850  -3.5895  -3.2784  -0.8887  -0.2608
     1.8031   2.6673

          k = 0.0000 0.3849 0.0000 ( 20145 PWs)   bands (ev):

   -23.5567 -23.5494 -23.4968 -23.4178 -23.4097 -23.3088 -23.2911 -23.2834
   -23.1634 -23.1243 -10.4849  -7.2821  -3.4795  -3.3998  -1.0581  -0.3662
     1.9352   2.8825

          k = 0.0000 0.4330 0.0000 ( 20161 PWs)   bands (ev):

   -23.5583 -23.5474 -23.5034 -23.4137 -23.4098 -23.3032 -23.2968 -23.2817
   -23.1662 -23.1198 -10.2744  -7.6556  -3.4977  -3.3506  -1.2282  -0.4747
     2.0837   3.1008

          k = 0.0000 0.4811 0.0000 ( 20157 PWs)   bands (ev):

   -23.5594 -23.5445 -23.5096 -23.4108 -23.4103 -23.3021 -23.3009 -23.2760
   -23.1692 -23.1166 -10.0692  -7.9814  -3.5693  -3.2243  -1.3827  -0.5653
     2.2483   3.2794

          k = 0.0000 0.5292 0.0000 ( 20142 PWs)   bands (ev):

   -23.5600 -23.5417 -23.5144 -23.4108 -23.4090 -23.3034 -23.3023 -23.2709
   -23.1716 -23.1146  -9.9039  -8.2205  -3.6129  -3.1277  -1.4964  -0.6241
     2.3982   3.3360

          k = 0.0000-0.5774 0.0000 ( 20152 PWs)   bands (ev):

   -23.5602 -23.5404 -23.5163 -23.4110 -23.4083 -23.3042 -23.3025 -23.2689
   -23.1726 -23.1139  -9.8364  -8.3129  -3.6275  -3.0907  -1.5394  -0.6444
     2.4655   3.3823

          k = 0.0417 0.0722 0.0000 ( 20017 PWs)   bands (ev):

   -23.5386 -23.5384 -23.4608 -23.4538 -23.4352 -23.3671 -23.2378 -23.2371
   -23.1720 -23.1690 -11.3379  -5.3532  -2.9872  -2.5113  -1.3192  -0.0661
     1.0010   1.2550

          k = 0.0417 0.1203 0.0000 ( 20039 PWs)   bands (ev):

   -23.5413 -23.5410 -23.4645 -23.4499 -23.4295 -23.3624 -23.2453 -23.2441
   -23.1689 -23.1622 -11.2793  -5.4693  -3.2942  -2.6324  -0.9378  -0.0721
     0.9478   1.4767

          k = 0.0417 0.1684 0.0000 ( 20081 PWs)   bands (ev):

   -23.5448 -23.5439 -23.4692 -23.4447 -23.4231 -23.3554 -23.2542 -23.2527
   -23.1659 -23.1542 -11.1919  -5.6701  -3.5216  -2.7864  -0.6423  -0.0935
     0.9868   1.7717

          k = 0.0417 0.2165 0.0000 ( 20075 PWs)   bands (ev):

   -23.5484 -23.5465 -23.4747 -23.4388 -23.4170 -23.3465 -23.2634 -23.2617
   -23.1636 -23.1460 -11.0763  -5.9582  -3.6422  -2.9533  -0.5287  -0.1198
     1.1777   2.0881

          k = 0.0417 0.2646 0.0000 ( 20107 PWs)   bands (ev):

   -23.5519 -23.5484 -23.4807 -23.4328 -23.4120 -23.3360 -23.2723 -23.2703
   -23.1626 -23.1381 -10.9337  -6.3124  -3.6674  -3.1178  -0.5913  -0.1431
     1.4574   2.2875

          k = 0.0417 0.3127 0.0000 ( 20105 PWs)   bands (ev):

   -23.5549 -23.5492 -23.4871 -23.4270 -23.4085 -23.3248 -23.2807 -23.2775
   -23.1630 -23.1310 -10.7658  -6.7017  -3.6250  -3.2667  -0.7402  -0.1907
     1.6966   2.4931

          k = 0.0417 0.3608 0.0000 ( 20127 PWs)   bands (ev):

   -23.5573 -23.5489 -23.4937 -23.4218 -23.4065 -23.3142 -23.2880 -23.2823
   -23.1647 -23.1247 -10.5758  -7.0995  -3.5560  -3.3757  -0.9202  -0.2682
     1.8635   2.7193

          k = 0.0417 0.4090 0.0000 ( 20135 PWs)   bands (ev):

   -23.5592 -23.5474 -23.5004 -23.4174 -23.4057 -23.3064 -23.2942 -23.2831
   -23.1674 -23.1195 -10.3696  -7.4845  -3.5702  -3.3496  -1.1092  -0.3600
     2.0133   2.9038

          k = 0.0417 0.4571 0.0000 ( 20146 PWs)   bands (ev):

   -23.5606 -23.5449 -23.5068 -23.4139 -23.4059 -23.3037 -23.2988 -23.2788
   -23.1708 -23.1155 -10.1585  -7.8359  -3.6409  -3.2315  -1.2908  -0.4461
     2.1726   3.0295

          k = 0.0417 0.5052 0.0000 ( 20148 PWs)   bands (ev):

   -23.5615 -23.5420 -23.5124 -23.4112 -23.4066 -23.3038 -23.3017 -23.2729
   -23.1739 -23.1128  -9.9667  -8.1238  -3.6958  -3.1157  -1.4428  -0.5108
     2.3279   3.1162

          k = 0.0417 0.5533 0.0000 ( 20150 PWs)   bands (ev):

   -23.5619 -23.5398 -23.5160 -23.4094 -23.4077 -23.3046 -23.3029 -23.2692
   -23.1758 -23.1114  -9.8418  -8.2976  -3.7244  -3.0431  -1.5331  -0.5451
     2.4335   3.2151

          k = 0.0833 0.1443 0.0000 ( 20061 PWs)   bands (ev):

   -23.5444 -23.5434 -23.4682 -23.4463 -23.4233 -23.3567 -23.2531 -23.2511
   -23.1670 -23.1547 -11.2064  -5.6339  -3.4865  -2.7905  -0.6147  -0.0940
     0.8903   1.7736

          k = 0.0833 0.1925 0.0000 ( 20087 PWs)   bands (ev):

   -23.5483 -23.5455 -23.4729 -23.4418 -23.4163 -23.3493 -23.2616 -23.2593
   -23.1657 -23.1463 -11.1050  -5.8815  -3.6079  -2.9775  -0.3589  -0.1360
     0.9265   2.1177

          k = 0.0833 0.2406 0.0000 ( 20121 PWs)   bands (ev):

   -23.5523 -23.5470 -23.4786 -23.4367 -23.4096 -23.3404 -23.2702 -23.2676
   -23.1654 -23.1379 -10.9760  -6.2002  -3.6485  -3.1670  -0.3545  -0.1037
     1.1231   2.2414

          k = 0.0833 0.2887 0.0000 ( 20106 PWs)   bands (ev):

   -23.5560 -23.5477 -23.4848 -23.4313 -23.4041 -23.3305 -23.2782 -23.2752
   -23.1664 -23.1299 -10.8207  -6.5648  -3.6285  -3.3362  -0.5162  -0.0668
     1.4262   2.3259

          k = 0.0833 0.3368 0.0000 ( 20114 PWs)   bands (ev):

   -23.5592 -23.5475 -23.4913 -23.4261 -23.4003 -23.3206 -23.2855 -23.2809
   -23.1686 -23.1227 -10.6414  -6.9498  -3.6169  -3.4249  -0.7209  -0.0826
     1.7171   2.4751

          k = 0.0833 0.3849 0.0000 ( 20126 PWs)   bands (ev):

   -23.5618 -23.5462 -23.4980 -23.4212 -23.3983 -23.3124 -23.2918 -23.2831
   -23.1720 -23.1165 -10.4423  -7.3339  -3.7048  -3.3531  -0.9415  -0.1290
     1.9378   2.6339

          k = 0.0833 0.4330 0.0000 ( 20149 PWs)   bands (ev):

   -23.5637 -23.5440 -23.5044 -23.4166 -23.3981 -23.3080 -23.2969 -23.2806
   -23.1761 -23.1115 -10.2312  -7.6977  -3.8051  -3.2208  -1.1613  -0.1857
     2.1146   2.7334

          k = 0.0833 0.4811 0.0000 ( 20151 PWs)   bands (ev):

   -23.5651 -23.5413 -23.5104 -23.4126 -23.3992 -23.3068 -23.3007 -23.2750
   -23.1803 -23.1078 -10.0243  -8.0180  -3.8821  -3.0815  -1.3602  -0.2367
     2.2609   2.8202

          k = 0.0833 0.5292 0.0000 ( 20157 PWs)   bands (ev):

   -23.5658 -23.5385 -23.5150 -23.4090 -23.4013 -23.3064 -23.3033 -23.2700
   -23.1835 -23.1055  -9.8561  -8.2557  -3.9296  -2.9698  -1.5077  -0.2712
     2.3537   2.9539

          k = 0.0833 0.5774 0.0000 ( 20154 PWs)   bands (ev):

   -23.5661 -23.5373 -23.5169 -23.4070 -23.4029 -23.3062 -23.3044 -23.2680
   -23.1848 -23.1048  -9.7868  -8.3485  -3.9456  -2.9254  -1.5640  -0.2834
     2.3828   3.0750

          k = 0.1250 0.2165 0.0000 ( 20099 PWs)   bands (ev):

   -23.5524 -23.5466 -23.4777 -23.4382 -23.4085 -23.3420 -23.2694 -23.2666
   -23.1667 -23.1376 -10.9901  -6.1611  -3.6339  -3.1996  -0.2348  -0.0589
     0.9286   2.2516

          k = 0.1250 0.2646 0.0000 ( 20119 PWs)   bands (ev):

   -23.5566 -23.5469 -23.4834 -23.4339 -23.4009 -23.3341 -23.2770 -23.2738
   -23.1688 -23.1289 -10.8482  -6.4908  -3.6062  -3.4155  -0.3790   0.1361
     1.0880   2.3023

          k = 0.1250 0.3127 0.0000 ( 20122 PWs)   bands (ev):

   -23.5606 -23.5465 -23.4897 -23.4290 -23.3947 -23.3261 -23.2839 -23.2797
   -23.1721 -23.1207 -10.6810  -6.8498  -3.6534  -3.4890  -0.5737   0.2084
     1.3982   2.3695

          k = 0.1250 0.3608 0.0000 ( 20112 PWs)   bands (ev):

   -23.5640 -23.5452 -23.4962 -23.4239 -23.3904 -23.3191 -23.2902 -23.2826
   -23.1765 -23.1133 -10.4914  -7.2189  -3.8210  -3.3766  -0.7988   0.2121
     1.7455   2.4352

          k = 0.1250 0.4090 0.0000 ( 20146 PWs)   bands (ev):

   -23.5668 -23.5431 -23.5026 -23.4188 -23.3885 -23.3145 -23.2955 -23.2814
   -23.1818 -23.1072 -10.2848  -7.5808  -3.9652  -3.2294  -1.0358   0.1883
     2.0370   2.4595

          k = 0.1250 0.4571 0.0000 ( 20145 PWs)   bands (ev):

   -23.5689 -23.5405 -23.5086 -23.4138 -23.3889 -23.3121 -23.2999 -23.2767
   -23.1875 -23.1023 -10.0716  -7.9166  -4.0755  -3.0702  -1.2655   0.1570
     2.2147   2.5206

          k = 0.1250 0.5052 0.0000 ( 20141 PWs)   bands (ev):

   -23.5703 -23.5376 -23.5138 -23.4092 -23.3909 -23.3106 -23.3035 -23.2711
   -23.1925 -23.0990  -9.8749  -8.1978  -4.1498  -2.9230  -1.4613   0.1301
     2.2509   2.7100

          k = 0.1250 0.5533 0.0000 ( 20145 PWs)   bands (ev):

   -23.5710 -23.5354 -23.5171 -23.4059 -23.3932 -23.3090 -23.3062 -23.2674
   -23.1956 -23.0974  -9.7437  -8.3720  -4.1871  -2.8274  -1.5818   0.1148
     2.2460   2.9272

          k = 0.1667 0.2887 0.0000 ( 20113 PWs)   bands (ev):

   -23.5611 -23.5462 -23.4891 -23.4300 -23.3923 -23.3283 -23.2834 -23.2792
   -23.1734 -23.1199 -10.6943  -6.8143  -3.6654  -3.5166  -0.5263   0.4254
     1.1557   2.3742

          k = 0.1667 0.3368 0.0000 ( 20110 PWs)   bands (ev):

   -23.5653 -23.5447 -23.4953 -23.4254 -23.3849 -23.3239 -23.2893 -23.2822
   -23.1792 -23.1115 -10.5162  -7.1558  -3.8886  -3.3940  -0.7242   0.5833
     1.4103   2.4392

          k = 0.1667 0.3849 0.0000 ( 20115 PWs)   bands (ev):

   -23.5690 -23.5426 -23.5014 -23.4202 -23.3797 -23.3211 -23.2946 -23.2817
   -23.1859 -23.1041 -10.3175  -7.5011  -4.0784  -3.2425  -0.9502   0.6243
     1.7854   2.3650

          k = 0.1667 0.4330 0.0000 ( 20139 PWs)   bands (ev):

   -23.5720 -23.5399 -23.5073 -23.4148 -23.3776 -23.3193 -23.2993 -23.2777
   -23.1932 -23.0981 -10.1050  -7.8356  -4.2287  -3.0732  -1.1853   0.6237
     2.1547   2.2546

          k = 0.1667 0.4811 0.0000 ( 20145 PWs)   bands (ev):

   -23.5742 -23.5370 -23.5126 -23.4095 -23.3784 -23.3172 -23.3035 -23.2722
   -23.2003 -23.0936  -9.8928  -8.1388  -4.3370  -2.9022  -1.4075   0.6125
     2.1451   2.5013

          k = 0.1667 0.5292 0.0000 ( 20147 PWs)   bands (ev):

   -23.5755 -23.5342 -23.5168 -23.4051 -23.3806 -23.3144 -23.3074 -23.2672
   -23.2058 -23.0908  -9.7145  -8.3734  -4.4023  -2.7600  -1.5821   0.6024
     2.0835   2.7950

          k = 0.1667 0.5774 0.0000 ( 20135 PWs)   bands (ev):

   -23.5760 -23.5330 -23.5185 -23.4032 -23.3819 -23.3118 -23.3103 -23.2652
   -23.2080 -23.0899  -9.6380  -8.4689  -4.4240  -2.7003  -1.6528   0.5985
     2.0624   2.9613

          k = 0.2083 0.3608 0.0000 ( 20119 PWs)   bands (ev):

   -23.5697 -23.5424 -23.5011 -23.4207 -23.3759 -23.3242 -23.2943 -23.2817
   -23.1874 -23.1031 -10.3286  -7.4727  -4.1193  -3.2481  -0.9202   0.9162
     1.5315   2.4077

          k = 0.2083 0.4090 0.0000 ( 20133 PWs)   bands (ev):

   -23.5736 -23.5397 -23.5067 -23.4153 -23.3691 -23.3256 -23.2990 -23.2782
   -23.1963 -23.0958 -10.1222  -7.7901  -4.3131  -3.0779  -1.1399   1.0731
     1.8487   2.2358

          k = 0.2083 0.4571 0.0000 ( 20137 PWs)   bands (ev):

   -23.5767 -23.5367 -23.5119 -23.4097 -23.3662 -23.3253 -23.3036 -23.2729
   -23.2054 -23.0901  -9.9055  -8.0948  -4.4618  -2.8955  -1.3651   1.1192
     2.0615   2.2749

          k = 0.2083 0.5052 0.0000 ( 20163 PWs)   bands (ev):

   -23.5789 -23.5337 -23.5163 -23.4046 -23.3669 -23.3223 -23.3081 -23.2673
   -23.2136 -23.0861  -9.6976  -8.3635  -4.5621  -2.7204  -1.5714   1.1346
     1.9547   2.6465

          k = 0.2083 0.5533 0.0000 ( 20157 PWs)   bands (ev):

   -23.5800 -23.5315 -23.5193 -23.4013 -23.3686 -23.3178 -23.3128 -23.2633
   -23.2188 -23.0841  -9.5493  -8.5430  -4.6124  -2.5972  -1.7110   1.1403
     1.8955   2.9358

          k = 0.2500 0.4330 0.0000 ( 20149 PWs)   bands (ev):

   -23.5776 -23.5366 -23.5116 -23.4098 -23.3599 -23.3301 -23.3036 -23.2732
   -23.2072 -23.0888  -9.9100  -8.0785  -4.5056  -2.8942  -1.3491   1.4386
     2.0166   2.0793

          k = 0.2500 0.4811 0.0000 ( 20153 PWs)   bands (ev):

   -23.5807 -23.5336 -23.5160 -23.4044 -23.3547 -23.3312 -23.3085 -23.2674
   -23.2176 -23.0836  -9.6902  -8.3545  -4.6471  -2.7027  -1.5616   1.5991
     1.9330   2.3861

          k = 0.2500 0.5292 0.0000 ( 20133 PWs)   bands (ev):

   -23.5826 -23.5308 -23.5196 -23.4001 -23.3547 -23.3269 -23.3141 -23.2619
   -23.2263 -23.0804  -9.4890  -8.5903  -4.7333  -2.5286  -1.7495   1.6656
     1.8193   2.7906

          k = 0.2500 0.5774 0.0000 ( 20123 PWs)   bands (ev):

   -23.5833 -23.5293 -23.5213 -23.3984 -23.3555 -23.3205 -23.3202 -23.2591
   -23.2301 -23.0793  -9.3907  -8.7004  -4.7622  -2.4448  -1.8381   1.7104
     1.7528   3.0054

          k = 0.2917 0.5052 0.0000 ( 20137 PWs)   bands (ev):

   -23.5835 -23.5306 -23.5197 -23.3997 -23.3450 -23.3348 -23.3145 -23.2613
   -23.2291 -23.0791  -9.4675  -8.6067  -4.7750  -2.5043  -1.7631   1.7200
     2.1145   2.5509

          k = 0.2917 0.5533 0.0000 ( 20132 PWs)   bands (ev):

   -23.5850 -23.5280 -23.5226 -23.3969 -23.3426 -23.3301 -23.3218 -23.2554
   -23.2378 -23.0768  -9.2707  -8.8183  -4.8401  -2.3313  -1.9377   1.6770
     2.2506   2.8463

          k = 0.3333 0.5774 0.0000 ( 20133 PWs)   bands (ev):

   -23.5858 -23.5253 -23.5253 -23.3957 -23.3321 -23.3312 -23.3307 -23.2476
   -23.2475 -23.0756  -9.0460  -9.0459  -4.8763  -2.1330  -2.1329   1.6439
     2.6803   2.6804

     the Fermi energy is    -2.1270 ev

!    total energy              =    -326.41927884 Ry
     estimated scf accuracy    <       0.00000063 Ry
     smearing contrib. (-TS)   =      -0.00196152 Ry
     internal energy E=F+TS    =    -326.41731732 Ry

     The total energy is F=E-TS. E is the sum of the following terms:
     one-electron contribution =    -856.44368045 Ry
     hartree contribution      =     435.91260337 Ry
     xc contribution           =     -95.00770556 Ry
     ewald contribution        =     189.12146532 Ry

     convergence has been achieved in   7 iterations

     Writing output data file ../tmp/stanene.save/

     init_run     :      5.85s CPU      6.24s WALL (       1 calls)
     electrons    :    124.56s CPU    129.32s WALL (       1 calls)

     Called by init_run:
     wfcinit      :      4.45s CPU      4.60s WALL (       1 calls)
     potinit      :      0.39s CPU      0.39s WALL (       1 calls)
     hinit0       :      0.41s CPU      0.41s WALL (       1 calls)

     Called by electrons:
     c_bands      :    106.25s CPU    109.20s WALL (       7 calls)
     sum_band     :     14.46s CPU     15.64s WALL (       7 calls)
     v_of_rho     :      1.47s CPU      1.56s WALL (       8 calls)
     newd         :      2.34s CPU      3.04s WALL (       8 calls)
     mix_rho      :      0.25s CPU      0.26s WALL (       7 calls)

     Called by c_bands:
     init_us_2    :      0.90s CPU      0.91s WALL (     915 calls)
     cegterg      :    102.66s CPU    105.61s WALL (     427 calls)

     Called by *egterg:
     cdiaghg      :      1.66s CPU      1.67s WALL (    2325 calls)
     h_psi        :     64.70s CPU     67.55s WALL (    2386 calls)
     s_psi        :      4.68s CPU      4.72s WALL (    2386 calls)
     g_psi        :      0.42s CPU      0.42s WALL (    1898 calls)

     Called by h_psi:
     h_psi:calbec :      7.90s CPU      8.16s WALL (    2386 calls)
     vloc_psi     :     51.76s CPU     54.27s WALL (    2386 calls)
     add_vuspsi   :      4.79s CPU      4.86s WALL (    2386 calls)

     General routines
     calbec       :     10.24s CPU     10.58s WALL (    2813 calls)
     fft          :      1.59s CPU      1.64s WALL (     102 calls)
     ffts         :      0.06s CPU      0.06s WALL (      15 calls)
     fftw         :     54.72s CPU     57.27s WALL (   53806 calls)
     interpolate  :      0.20s CPU      0.20s WALL (       8 calls)

     Parallel routines
     fft_scatt_xy :      4.99s CPU      5.35s WALL (   53923 calls)
     fft_scatt_yz :     30.05s CPU     31.05s WALL (   53923 calls)

     PWSCF        :   2m10.70s CPU   2m16.12s WALL


   This run was terminated on:  22:31:12  23Jan2024            

=------------------------------------------------------------------------------=
   JOB DONE.
=------------------------------------------------------------------------------=
