
     Program PWSCF v.6.7MaX starts on 23Jan2024 at 22:31:13 

     This program is part of the open-source Quantum ESPRESSO suite
     for quantum simulation of materials; please cite
         "P. Giannozzi et al., J. Phys.:Condens. Matter 21 395502 (2009);
         "P. Giannozzi et al., J. Phys.:Condens. Matter 29 465901 (2017);
          URL http://www.quantum-espresso.org", 
     in publications or presentations arising from this work. More details at
     http://www.quantum-espresso.org/quote

     Parallel version (MPI), running on     6 processors

     MPI processes distributed on     1 nodes
     R & G space division:  proc/nbgrp/npool/nimage =       6
     Waiting for input...
     Reading input from standard input

     Current dimensions of program PWSCF are:
     Max number of different atomic species (ntypx) = 10
     Max number of k-points (npk) =  40000
     Max angular momentum in pseudopotentials (lmaxx) =  3

     Subspace diagonalization in iterative solution of the eigenvalue problem:
     one sub-group per band group will be used
     scalapack distributed-memory algorithm (size of sub-group:  2*  2 procs)


     Parallelization info
     --------------------
     sticks:   dense  smooth     PW     G-vecs:    dense   smooth      PW
     Min         431     214     61                75909    26818    4015
     Max         432     215     62                75924    26841    4025
     Sum        2587    1285    367               455489   160939   24117



     bravais-lattice index     =            4
     lattice parameter (alat)  =       8.8506  a.u.
     unit-cell volume          =    2563.9136 (a.u.)^3
     number of atoms/cell      =            2
     number of atomic types    =            1
     number of electrons       =        28.00
     number of Kohn-Sham states=           18
     kinetic-energy cutoff     =      60.0000  Ry
     charge density cutoff     =     480.0000  Ry
     scf convergence threshold =      1.0E-06
     mixing beta               =       0.7000
     number of iterations used =            8  plain     mixing
     Exchange-correlation= SLA  PW   PBE  PBE
                           (   1   4   3   4   0   0   0)

     celldm(1)=   8.850584  celldm(2)=   0.000000  celldm(3)=   4.270286
     celldm(4)=   0.000000  celldm(5)=   0.000000  celldm(6)=   0.000000

     crystal axes: (cart. coord. in units of alat)
               a(1) = (   1.000000   0.000000   0.000000 )  
               a(2) = (  -0.500000   0.866025   0.000000 )  
               a(3) = (   0.000000   0.000000   4.270286 )  

     reciprocal axes: (cart. coord. in units 2 pi/alat)
               b(1) = (  1.000000  0.577350 -0.000000 )  
               b(2) = (  0.000000  1.154701  0.000000 )  
               b(3) = (  0.000000 -0.000000  0.234176 )  


     PseudoPot. # 1 for Sn read from file:
     ../pseudo/Sn_pbe_v1.uspp.F.UPF
     MD5 check sum: 4cf58ce39ec5d5d420df3dd08604eb00
     Pseudo is Ultrasoft + core correction, Zval = 14.0
     Generated by new atomic code, or converted to UPF format
     Using radial grid of  891 points,  6 beta functions with: 
                l(1) =   0
                l(2) =   0
                l(3) =   1
                l(4) =   1
                l(5) =   2
                l(6) =   2
     Q(r) pseudized with  6 coefficients,  rinner =    1.200   1.200   1.200
                                                       1.200   1.200

     atomic species   valence    mass     pseudopotential
        Sn            14.00   118.71000     Sn( 1.00)

      6 Sym. Ops. (no inversion) found



   Cartesian axes

     site n.     atom                  positions (alat units)
         1           Sn  tau(   1) = (   0.0000000   0.5773503   2.1351428  )
         2           Sn  tau(   2) = (   0.5000000   0.2886751   1.9552503  )

     number of k points=    61  Fermi-Dirac smearing, width (Ry)=  0.0150
                       cart. coord. in units 2pi/alat
        k(    1) = (   0.0000000   0.0000000   0.0000000), wk =   0.0034722
        k(    2) = (   0.0000000   0.0481125   0.0000000), wk =   0.0208333
        k(    3) = (   0.0000000   0.0962250   0.0000000), wk =   0.0208333
        k(    4) = (   0.0000000   0.1443376   0.0000000), wk =   0.0208333
        k(    5) = (   0.0000000   0.1924501   0.0000000), wk =   0.0208333
        k(    6) = (   0.0000000   0.2405626   0.0000000), wk =   0.0208333
        k(    7) = (   0.0000000   0.2886751   0.0000000), wk =   0.0208333
        k(    8) = (   0.0000000   0.3367877   0.0000000), wk =   0.0208333
        k(    9) = (   0.0000000   0.3849002   0.0000000), wk =   0.0208333
        k(   10) = (   0.0000000   0.4330127   0.0000000), wk =   0.0208333
        k(   11) = (   0.0000000   0.4811252   0.0000000), wk =   0.0208333
        k(   12) = (   0.0000000   0.5292377   0.0000000), wk =   0.0208333
        k(   13) = (   0.0000000  -0.5773503   0.0000000), wk =   0.0104167
        k(   14) = (   0.0416667   0.0721688   0.0000000), wk =   0.0208333
        k(   15) = (   0.0416667   0.1202813   0.0000000), wk =   0.0416667
        k(   16) = (   0.0416667   0.1683938   0.0000000), wk =   0.0416667
        k(   17) = (   0.0416667   0.2165064   0.0000000), wk =   0.0416667
        k(   18) = (   0.0416667   0.2646189   0.0000000), wk =   0.0416667
        k(   19) = (   0.0416667   0.3127314   0.0000000), wk =   0.0416667
        k(   20) = (   0.0416667   0.3608439   0.0000000), wk =   0.0416667
        k(   21) = (   0.0416667   0.4089564   0.0000000), wk =   0.0416667
        k(   22) = (   0.0416667   0.4570690   0.0000000), wk =   0.0416667
        k(   23) = (   0.0416667   0.5051815   0.0000000), wk =   0.0416667
        k(   24) = (   0.0416667   0.5532940   0.0000000), wk =   0.0416667
        k(   25) = (   0.0833333   0.1443376   0.0000000), wk =   0.0208333
        k(   26) = (   0.0833333   0.1924501   0.0000000), wk =   0.0416667
        k(   27) = (   0.0833333   0.2405626   0.0000000), wk =   0.0416667
        k(   28) = (   0.0833333   0.2886751   0.0000000), wk =   0.0416667
        k(   29) = (   0.0833333   0.3367877   0.0000000), wk =   0.0416667
        k(   30) = (   0.0833333   0.3849002   0.0000000), wk =   0.0416667
        k(   31) = (   0.0833333   0.4330127   0.0000000), wk =   0.0416667
        k(   32) = (   0.0833333   0.4811252   0.0000000), wk =   0.0416667
        k(   33) = (   0.0833333   0.5292377   0.0000000), wk =   0.0416667
        k(   34) = (   0.0833333   0.5773503   0.0000000), wk =   0.0208333
        k(   35) = (   0.1250000   0.2165064   0.0000000), wk =   0.0208333
        k(   36) = (   0.1250000   0.2646189   0.0000000), wk =   0.0416667
        k(   37) = (   0.1250000   0.3127314   0.0000000), wk =   0.0416667
        k(   38) = (   0.1250000   0.3608439   0.0000000), wk =   0.0416667
        k(   39) = (   0.1250000   0.4089564   0.0000000), wk =   0.0416667
        k(   40) = (   0.1250000   0.4570690   0.0000000), wk =   0.0416667
        k(   41) = (   0.1250000   0.5051815   0.0000000), wk =   0.0416667
        k(   42) = (   0.1250000   0.5532940   0.0000000), wk =   0.0416667
        k(   43) = (   0.1666667   0.2886751   0.0000000), wk =   0.0208333
        k(   44) = (   0.1666667   0.3367877   0.0000000), wk =   0.0416667
        k(   45) = (   0.1666667   0.3849002   0.0000000), wk =   0.0416667
        k(   46) = (   0.1666667   0.4330127   0.0000000), wk =   0.0416667
        k(   47) = (   0.1666667   0.4811252   0.0000000), wk =   0.0416667
        k(   48) = (   0.1666667   0.5292377   0.0000000), wk =   0.0416667
        k(   49) = (   0.1666667   0.5773503   0.0000000), wk =   0.0208333
        k(   50) = (   0.2083333   0.3608439   0.0000000), wk =   0.0208333
        k(   51) = (   0.2083333   0.4089564   0.0000000), wk =   0.0416667
        k(   52) = (   0.2083333   0.4570690   0.0000000), wk =   0.0416667
        k(   53) = (   0.2083333   0.5051815   0.0000000), wk =   0.0416667
        k(   54) = (   0.2083333   0.5532940   0.0000000), wk =   0.0416667
        k(   55) = (   0.2500000   0.4330127   0.0000000), wk =   0.0208333
        k(   56) = (   0.2500000   0.4811252   0.0000000), wk =   0.0416667
        k(   57) = (   0.2500000   0.5292377   0.0000000), wk =   0.0416667
        k(   58) = (   0.2500000   0.5773503   0.0000000), wk =   0.0208333
        k(   59) = (   0.2916667   0.5051815   0.0000000), wk =   0.0208333
        k(   60) = (   0.2916667   0.5532940   0.0000000), wk =   0.0416667
        k(   61) = (   0.3333333   0.5773503   0.0000000), wk =   0.0069444

     Dense  grid:   455489 G-vectors     FFT dimensions: (  64,  64, 270)

     Smooth grid:   160939 G-vectors     FFT dimensions: (  45,  45, 192)

     Estimated max dynamical RAM per process >     322.30 MB

     Estimated total dynamical RAM >       1.89 GB

     Initial potential from superposition of free atoms

     starting charge   25.99991, renormalised to   28.00000

     negative rho (up, down):  5.949E-04 0.000E+00
     Starting wfcs are   18 randomized atomic wfcs

     total cpu time spent up to now is        6.2 secs

     Self-consistent Calculation

     iteration #  1     ecut=    60.00 Ry     beta= 0.70
     Davidson diagonalization with overlap
     ethr =  1.00E-02,  avg # of iterations =  8.8

     total cpu time spent up to now is       27.9 secs

     total energy              =    -325.44313149 Ry
     estimated scf accuracy    <       2.49205463 Ry

     iteration #  2     ecut=    60.00 Ry     beta= 0.70
     Davidson diagonalization with overlap
     ethr =  8.90E-03,  avg # of iterations =  2.1

     negative rho (up, down):  3.391E-07 0.000E+00

     total cpu time spent up to now is       45.8 secs

     total energy              =    -326.35759005 Ry
     estimated scf accuracy    <       0.40277835 Ry

     iteration #  3     ecut=    60.00 Ry     beta= 0.70
     Davidson diagonalization with overlap
     ethr =  1.44E-03,  avg # of iterations =  2.1

     negative rho (up, down):  1.596E-05 0.000E+00

     total cpu time spent up to now is       64.9 secs

     total energy              =    -326.41879678 Ry
     estimated scf accuracy    <       0.00675760 Ry

     iteration #  4     ecut=    60.00 Ry     beta= 0.70
     Davidson diagonalization with overlap
     c_bands:  1 eigenvalues not converged
     ethr =  2.41E-05,  avg # of iterations =  8.4

     negative rho (up, down):  7.215E-05 0.000E+00

     total cpu time spent up to now is       87.3 secs

     total energy              =    -326.42087316 Ry
     estimated scf accuracy    <       0.00026662 Ry

     iteration #  5     ecut=    60.00 Ry     beta= 0.70
     Davidson diagonalization with overlap
     ethr =  9.52E-07,  avg # of iterations =  6.1

     negative rho (up, down):  7.898E-05 0.000E+00

     total cpu time spent up to now is      103.5 secs

     total energy              =    -326.42088848 Ry
     estimated scf accuracy    <       0.00003084 Ry

     iteration #  6     ecut=    60.00 Ry     beta= 0.70
     Davidson diagonalization with overlap
     ethr =  1.10E-07,  avg # of iterations =  2.6

     negative rho (up, down):  8.352E-05 0.000E+00

     total cpu time spent up to now is      118.7 secs

     total energy              =    -326.42089455 Ry
     estimated scf accuracy    <       0.00002638 Ry

     iteration #  7     ecut=    60.00 Ry     beta= 0.70
     Davidson diagonalization with overlap
     ethr =  9.42E-08,  avg # of iterations =  2.0

     negative rho (up, down):  8.548E-05 0.000E+00

     total cpu time spent up to now is      133.3 secs

     End of self-consistent calculation

          k = 0.0000 0.0000 0.0000 ( 20025 PWs)   bands (ev):

   -23.5512 -23.5512 -23.4712 -23.4712 -23.4528 -23.3826 -23.2454 -23.2454
   -23.1910 -23.1910 -11.3973  -5.2882  -2.4292  -2.4292  -1.9655  -0.0727
     1.0679   1.0679

          k = 0.0000 0.0481 0.0000 ( 20035 PWs)   bands (ev):

   -23.5521 -23.5520 -23.4723 -23.4700 -23.4511 -23.3814 -23.2479 -23.2477
   -23.1896 -23.1887 -11.3826  -5.3116  -2.7168  -2.4617  -1.6594  -0.0717
     1.0382   1.1237

          k = 0.0000 0.0962 0.0000 ( 20005 PWs)   bands (ev):

   -23.5544 -23.5542 -23.4752 -23.4666 -23.4467 -23.3779 -23.2543 -23.2537
   -23.1864 -23.1829 -11.3385  -5.3901  -3.1020  -2.5522  -1.2240  -0.0720
     0.9836   1.2832

          k = 0.0000 0.1443 0.0000 ( 20065 PWs)   bands (ev):

   -23.5575 -23.5573 -23.4793 -23.4615 -23.4409 -23.3721 -23.2628 -23.2620
   -23.1826 -23.1755 -11.2654  -5.5446  -3.4101  -2.6839  -0.8602  -0.0825
     0.9891   1.5262

          k = 0.0000 0.1925 0.0000 ( 20113 PWs)   bands (ev):

   -23.5607 -23.5606 -23.4843 -23.4554 -23.4351 -23.3642 -23.2721 -23.2710
   -23.1793 -23.1675 -11.1637  -5.7905  -3.6033  -2.8379  -0.6592  -0.1066
     1.1358   2.1776

          k = 0.0000 0.2406 0.0000 ( 20071 PWs)   bands (ev):

   -23.5642 -23.5631 -23.4899 -23.4489 -23.4302 -23.3544 -23.2814 -23.2798
   -23.1771 -23.1596 -11.0343  -6.1184  -3.6820  -2.9984  -0.6452  -0.1376
     1.3985   2.2864

          k = 0.0000 0.2887 0.0000 ( 20087 PWs)   bands (ev):

   -23.5674 -23.5645 -23.4960 -23.4425 -23.4268 -23.3434 -23.2903 -23.2875
   -23.1764 -23.1523 -10.8787  -6.4982  -3.6713  -3.1533  -0.7486  -0.1882
     1.6403   2.4632

          k = 0.0000 0.3368 0.0000 ( 20109 PWs)   bands (ev):

   -23.5701 -23.5648 -23.5025 -23.4366 -23.4248 -23.3321 -23.2983 -23.2934
   -23.1770 -23.1458 -10.6992  -6.8990  -3.5993  -3.2945  -0.9007  -0.2711
     1.7982   2.6673

          k = 0.0000 0.3849 0.0000 ( 20145 PWs)   bands (ev):

   -23.5723 -23.5638 -23.5093 -23.4314 -23.4242 -23.3224 -23.3053 -23.2962
   -23.1789 -23.1403 -10.5001  -7.2965  -3.4890  -3.4159  -1.0691  -0.3778
     1.9312   2.8824

          k = 0.0000 0.4330 0.0000 ( 20161 PWs)   bands (ev):

   -23.5740 -23.5616 -23.5160 -23.4273 -23.4245 -23.3168 -23.3108 -23.2942
   -23.1818 -23.1359 -10.2896  -7.6702  -3.5138  -3.3600  -1.2382  -0.4874
     2.0800   3.1003

          k = 0.0000 0.4811 0.0000 ( 20157 PWs)   bands (ev):

   -23.5751 -23.5587 -23.5222 -23.4252 -23.4242 -23.3155 -23.3149 -23.2885
   -23.1849 -23.1327 -10.0844  -7.9962  -3.5854  -3.2337  -1.3918  -0.5790
     2.2446   3.2780

          k = 0.0000 0.5292 0.0000 ( 20142 PWs)   bands (ev):

   -23.5758 -23.5559 -23.5270 -23.4258 -23.4224 -23.3174 -23.3156 -23.2834
   -23.1874 -23.1307  -9.9190  -8.2354  -3.6290  -3.1372  -1.5050  -0.6384
     2.3941   3.3338

          k = 0.0000-0.5774 0.0000 ( 20152 PWs)   bands (ev):

   -23.5760 -23.5546 -23.5290 -23.4260 -23.4218 -23.3182 -23.3157 -23.2814
   -23.1883 -23.1301  -9.8515  -8.3278  -3.6436  -3.1001  -1.5477  -0.6587
     2.4610   3.3724

          k = 0.0417 0.0722 0.0000 ( 20017 PWs)   bands (ev):

   -23.5536 -23.5535 -23.4742 -23.4678 -23.4480 -23.3791 -23.2524 -23.2518
   -23.1875 -23.1846 -11.3532  -5.3626  -3.0018  -2.5275  -1.3340  -0.0714
     0.9864   1.2400

          k = 0.0417 0.1203 0.0000 ( 20039 PWs)   bands (ev):

   -23.5564 -23.5561 -23.4775 -23.4639 -23.4427 -23.3745 -23.2598 -23.2587
   -23.1844 -23.1778 -11.2946  -5.4795  -3.3078  -2.6485  -0.9528  -0.0777
     0.9338   1.4618

          k = 0.0417 0.1684 0.0000 ( 20081 PWs)   bands (ev):

   -23.5599 -23.5589 -23.4819 -23.4586 -23.4366 -23.3677 -23.2686 -23.2671
   -23.1813 -23.1699 -11.2072  -5.6813  -3.5341  -2.8025  -0.6572  -0.0996
     0.9736   1.7573

          k = 0.0417 0.2165 0.0000 ( 20075 PWs)   bands (ev):

   -23.5637 -23.5613 -23.4872 -23.4527 -23.4307 -23.3591 -23.2777 -23.2760
   -23.1791 -23.1618 -11.0916  -5.9706  -3.6536  -2.9694  -0.5429  -0.1270
     1.1657   2.0750

          k = 0.0417 0.2646 0.0000 ( 20107 PWs)   bands (ev):

   -23.5672 -23.5631 -23.4932 -23.4466 -23.4260 -23.3489 -23.2866 -23.2842
   -23.1780 -23.1540 -10.9489  -6.3256  -3.6779  -3.1338  -0.6044  -0.1519
     1.4477   2.2800

          k = 0.0417 0.3127 0.0000 ( 20105 PWs)   bands (ev):

   -23.5703 -23.5638 -23.4995 -23.4407 -23.4227 -23.3380 -23.2948 -23.2910
   -23.1784 -23.1469 -10.7810  -6.7155  -3.6351  -3.2826  -0.7521  -0.2010
     1.6901   2.4861

          k = 0.0417 0.3608 0.0000 ( 20127 PWs)   bands (ev):

   -23.5729 -23.5633 -23.5062 -23.4355 -23.4208 -23.3277 -23.3022 -23.2954
   -23.1801 -23.1407 -10.5910  -7.1137  -3.5669  -3.3904  -0.9312  -0.2797
     1.8590   2.7146

          k = 0.0417 0.4090 0.0000 ( 20135 PWs)   bands (ev):

   -23.5749 -23.5617 -23.5129 -23.4311 -23.4202 -23.3202 -23.3082 -23.2956
   -23.1830 -23.1356 -10.3848  -7.4990  -3.5850  -3.3603  -1.1192  -0.3727
     2.0095   2.8987

          k = 0.0417 0.4571 0.0000 ( 20146 PWs)   bands (ev):

   -23.5763 -23.5591 -23.5194 -23.4277 -23.4204 -23.3175 -23.3127 -23.2912
   -23.1863 -23.1316 -10.1737  -7.8506  -3.6565  -3.2413  -1.3001  -0.4597
     2.1688   3.0231

          k = 0.0417 0.5052 0.0000 ( 20148 PWs)   bands (ev):

   -23.5773 -23.5561 -23.5250 -23.4254 -23.4209 -23.3177 -23.3153 -23.2854
   -23.1895 -23.1289  -9.9819  -8.1387  -3.7116  -3.1253  -1.4515  -0.5250
     2.3238   3.1095

          k = 0.0417 0.5533 0.0000 ( 20150 PWs)   bands (ev):

   -23.5777 -23.5539 -23.5286 -23.4241 -23.4214 -23.3186 -23.3161 -23.2817
   -23.1915 -23.1276  -9.8569  -8.3125  -3.7402  -3.0527  -1.5415  -0.5595
     2.4289   3.2082

          k = 0.0833 0.1443 0.0000 ( 20061 PWs)   bands (ev):

   -23.5597 -23.5583 -23.4809 -23.4602 -23.4368 -23.3690 -23.2675 -23.2656
   -23.1825 -23.1704 -11.2217  -5.6449  -3.4991  -2.8066  -0.6297  -0.1000
     0.8769   1.7589

          k = 0.0833 0.1925 0.0000 ( 20087 PWs)   bands (ev):

   -23.5636 -23.5603 -23.4855 -23.4557 -23.4300 -23.3618 -23.2759 -23.2736
   -23.1811 -23.1621 -11.1203  -5.8936  -3.6195  -2.9936  -0.3735  -0.1429
     0.9140   2.1042

          k = 0.0833 0.2406 0.0000 ( 20121 PWs)   bands (ev):

   -23.5676 -23.5617 -23.4911 -23.4505 -23.4235 -23.3532 -23.2843 -23.2817
   -23.1808 -23.1537 -10.9912  -6.2132  -3.6593  -3.1830  -0.3656  -0.1144
     1.1115   2.2368

          k = 0.0833 0.2887 0.0000 ( 20106 PWs)   bands (ev):

   -23.5714 -23.5623 -23.4972 -23.4450 -23.4182 -23.3437 -23.2923 -23.2890
   -23.1818 -23.1458 -10.8359  -6.5785  -3.6389  -3.3519  -0.5263  -0.0789
     1.4165   2.3195

          k = 0.0833 0.3368 0.0000 ( 20114 PWs)   bands (ev):

   -23.5747 -23.5619 -23.5038 -23.4398 -23.4146 -23.3342 -23.2995 -23.2941
   -23.1840 -23.1387 -10.6566  -6.9639  -3.6296  -3.4378  -0.7307  -0.0953
     1.7102   2.4666

          k = 0.0833 0.3849 0.0000 ( 20126 PWs)   bands (ev):

   -23.5774 -23.5605 -23.5105 -23.4349 -23.4127 -23.3264 -23.3058 -23.2958
   -23.1873 -23.1325 -10.4575  -7.3483  -3.7199  -3.3634  -0.9509  -0.1424
     1.9331   2.6252

          k = 0.0833 0.4330 0.0000 ( 20149 PWs)   bands (ev):

   -23.5795 -23.5582 -23.5170 -23.4304 -23.4126 -23.3221 -23.3107 -23.2931
   -23.1915 -23.1276 -10.2464  -7.7123  -3.8206  -3.2305  -1.1703  -0.1996
     2.1106   2.7254

          k = 0.0833 0.4811 0.0000 ( 20151 PWs)   bands (ev):

   -23.5809 -23.5553 -23.5230 -23.4264 -23.4138 -23.3208 -23.3144 -23.2875
   -23.1957 -23.1240 -10.0395  -8.0327  -3.8978  -3.0910  -1.3689  -0.2510
     2.2565   2.8130

          k = 0.0833 0.5292 0.0000 ( 20157 PWs)   bands (ev):

   -23.5817 -23.5525 -23.5276 -23.4228 -23.4160 -23.3204 -23.3168 -23.2825
   -23.1991 -23.1217  -9.8712  -8.2706  -3.9453  -2.9793  -1.5161  -0.2858
     2.3484   2.9477

          k = 0.0833 0.5774 0.0000 ( 20154 PWs)   bands (ev):

   -23.5820 -23.5512 -23.5295 -23.4204 -23.4179 -23.3202 -23.3177 -23.2806
   -23.2004 -23.1210  -9.8019  -8.3634  -3.9613  -2.9349  -1.5724  -0.2980
     2.3770   3.0685

          k = 0.1250 0.2165 0.0000 ( 20099 PWs)   bands (ev):

   -23.5678 -23.5612 -23.4902 -23.4520 -23.4224 -23.3548 -23.2836 -23.2808
   -23.1820 -23.1534 -11.0054  -6.1739  -3.6447  -3.2156  -0.2420  -0.0739
     0.9168   2.2484

          k = 0.1250 0.2646 0.0000 ( 20119 PWs)   bands (ev):

   -23.5721 -23.5614 -23.4959 -23.4476 -23.4150 -23.3473 -23.2910 -23.2877
   -23.1841 -23.1448 -10.8635  -6.5043  -3.6166  -3.4314  -0.3870   0.1216
     1.0768   2.2979

          k = 0.1250 0.3127 0.0000 ( 20122 PWs)   bands (ev):

   -23.5762 -23.5608 -23.5022 -23.4427 -23.4089 -23.3397 -23.2979 -23.2931
   -23.1874 -23.1367 -10.6963  -6.8638  -3.6683  -3.4999  -0.5821   0.1943
     1.3881   2.3631

          k = 0.1250 0.3608 0.0000 ( 20112 PWs)   bands (ev):

   -23.5797 -23.5594 -23.5087 -23.4376 -23.4047 -23.3332 -23.3040 -23.2955
   -23.1918 -23.1294 -10.5067  -7.2332  -3.8367  -3.3863  -0.8074   0.1980
     1.7377   2.4269

          k = 0.1250 0.4090 0.0000 ( 20146 PWs)   bands (ev):

   -23.5826 -23.5572 -23.5152 -23.4325 -23.4029 -23.3289 -23.3092 -23.2939
   -23.1971 -23.1233 -10.3000  -7.5953  -3.9809  -3.2389  -1.0445   0.1740
     2.0319   2.4505

          k = 0.1250 0.4571 0.0000 ( 20145 PWs)   bands (ev):

   -23.5848 -23.5544 -23.5212 -23.4275 -23.4035 -23.3264 -23.3136 -23.2891
   -23.2027 -23.1185 -10.0868  -7.9313  -4.0913  -3.0795  -1.2741   0.1425
     2.2098   2.5129

          k = 0.1250 0.5052 0.0000 ( 20141 PWs)   bands (ev):

   -23.5862 -23.5513 -23.5264 -23.4229 -23.4057 -23.3247 -23.3171 -23.2836
   -23.2078 -23.1153  -9.8900  -8.2127  -4.1655  -2.9323  -1.4698   0.1154
     2.2444   2.7045

          k = 0.1250 0.5533 0.0000 ( 20145 PWs)   bands (ev):

   -23.5869 -23.5491 -23.5298 -23.4194 -23.4082 -23.3231 -23.3197 -23.2799
   -23.2110 -23.1136  -9.7588  -8.3869  -4.2029  -2.8367  -1.5902   0.1000
     2.2390   2.9223

          k = 0.1667 0.2887 0.0000 ( 20113 PWs)   bands (ev):

   -23.5767 -23.5605 -23.5016 -23.4437 -23.4065 -23.3420 -23.2973 -23.2927
   -23.1886 -23.1359 -10.7095  -6.8283  -3.6814  -3.5263  -0.5344   0.4105
     1.1450   2.3690

          k = 0.1667 0.3368 0.0000 ( 20110 PWs)   bands (ev):

   -23.5810 -23.5589 -23.5078 -23.4390 -23.3991 -23.3381 -23.3031 -23.2952
   -23.1944 -23.1276 -10.5314  -7.1701  -3.9046  -3.4034  -0.7325   0.5686
     1.4000   2.4326

          k = 0.1667 0.3849 0.0000 ( 20115 PWs)   bands (ev):

   -23.5848 -23.5566 -23.5140 -23.4339 -23.3941 -23.3358 -23.3083 -23.2942
   -23.2011 -23.1203 -10.3328  -7.5156  -4.0943  -3.2518  -0.9586   0.6098
     1.7763   2.3571

          k = 0.1667 0.4330 0.0000 ( 20139 PWs)   bands (ev):

   -23.5879 -23.5537 -23.5199 -23.4285 -23.3921 -23.3340 -23.3130 -23.2902
   -23.2083 -23.1143 -10.1202  -7.8502  -4.2446  -3.0824  -1.1938   0.6091
     2.1485   2.2459

          k = 0.1667 0.4811 0.0000 ( 20145 PWs)   bands (ev):

   -23.5901 -23.5506 -23.5253 -23.4231 -23.3932 -23.3316 -23.3172 -23.2847
   -23.2153 -23.1099  -9.9080  -8.1536  -4.3529  -2.9113  -1.4160   0.5978
     2.1374   2.4958

          k = 0.1667 0.5292 0.0000 ( 20147 PWs)   bands (ev):

   -23.5915 -23.5478 -23.5295 -23.4186 -23.3957 -23.3286 -23.3211 -23.2798
   -23.2209 -23.1071  -9.7296  -8.3883  -4.4181  -2.7690  -1.5905   0.5875
     2.0757   2.7905

          k = 0.1667 0.5774 0.0000 ( 20135 PWs)   bands (ev):

   -23.5920 -23.5465 -23.5312 -23.4166 -23.3971 -23.3259 -23.3241 -23.2778
   -23.2231 -23.1062  -9.6531  -8.4838  -4.4399  -2.7093  -1.6612   0.5836
     2.0546   2.9568

          k = 0.2083 0.3608 0.0000 ( 20119 PWs)   bands (ev):

   -23.5856 -23.5564 -23.5136 -23.4343 -23.3901 -23.3390 -23.3080 -23.2943
   -23.2025 -23.1192 -10.3438  -7.4872  -4.1352  -3.2573  -0.9285   0.9014
     1.5212   2.3996

          k = 0.2083 0.4090 0.0000 ( 20133 PWs)   bands (ev):

   -23.5896 -23.5535 -23.5193 -23.4289 -23.3834 -23.3406 -23.3127 -23.2906
   -23.2113 -23.1120 -10.1374  -7.8047  -4.3290  -3.0870  -1.1482   1.0585
     1.8387   2.2276

          k = 0.2083 0.4571 0.0000 ( 20137 PWs)   bands (ev):

   -23.5927 -23.5503 -23.5245 -23.4233 -23.3807 -23.3402 -23.3173 -23.2854
   -23.2202 -23.1063  -9.9206  -8.1096  -4.4778  -2.9044  -1.3735   1.1046
     2.0530   2.2670

          k = 0.2083 0.5052 0.0000 ( 20163 PWs)   bands (ev):

   -23.5949 -23.5472 -23.5290 -23.4181 -23.3817 -23.3369 -23.3219 -23.2799
   -23.2283 -23.1024  -9.7127  -8.3784  -4.5780  -2.7293  -1.5799   1.1198
     1.9465   2.6403

          k = 0.2083 0.5533 0.0000 ( 20157 PWs)   bands (ev):

   -23.5961 -23.5449 -23.5321 -23.4147 -23.3837 -23.3321 -23.3268 -23.2760
   -23.2335 -23.1004  -9.5644  -8.5579  -4.6284  -2.6061  -1.7194   1.1254
     1.8874   2.9308

          k = 0.2500 0.4330 0.0000 ( 20149 PWs)   bands (ev):

   -23.5936 -23.5502 -23.5243 -23.4234 -23.3742 -23.3454 -23.3173 -23.2857
   -23.2219 -23.1051  -9.9252  -8.0932  -4.5216  -2.9031  -1.3575   1.4243
     2.0064   2.0705

          k = 0.2500 0.4811 0.0000 ( 20153 PWs)   bands (ev):

   -23.5967 -23.5470 -23.5287 -23.4179 -23.3692 -23.3464 -23.3224 -23.2800
   -23.2322 -23.0999  -9.7054  -8.3694  -4.6631  -2.7115  -1.5701   1.5855
     1.9235   2.3764

          k = 0.2500 0.5292 0.0000 ( 20133 PWs)   bands (ev):

   -23.5987 -23.5440 -23.5324 -23.4135 -23.3696 -23.3416 -23.3281 -23.2746
   -23.2407 -23.0967  -9.5041  -8.6052  -4.7493  -2.5374  -1.7580   1.6524
     1.8095   2.7825

          k = 0.2500 0.5774 0.0000 ( 20123 PWs)   bands (ev):

   -23.5994 -23.5425 -23.5341 -23.4118 -23.3706 -23.3348 -23.3346 -23.2720
   -23.2444 -23.0956  -9.4057  -8.7153  -4.7782  -2.4536  -1.8466   1.6956
     1.7446   2.9983

          k = 0.2917 0.5052 0.0000 ( 20137 PWs)   bands (ev):

   -23.5996 -23.5438 -23.5325 -23.4131 -23.3593 -23.3503 -23.3286 -23.2741
   -23.2432 -23.0955  -9.4826  -8.6216  -4.7910  -2.5131  -1.7716   1.7113
     2.1002   2.5401

          k = 0.2917 0.5533 0.0000 ( 20132 PWs)   bands (ev):

   -23.6011 -23.5411 -23.5354 -23.4102 -23.3574 -23.3449 -23.3361 -23.2685
   -23.2517 -23.0932  -9.2857  -8.8333  -4.8561  -2.3400  -1.9463   1.6688
     2.2360   2.8350

          k = 0.3333 0.5774 0.0000 ( 20133 PWs)   bands (ev):

   -23.6019 -23.5383 -23.5383 -23.4090 -23.3463 -23.3460 -23.3458 -23.2610
   -23.2610 -23.0920  -9.0611  -9.0609  -4.8923  -2.1416  -2.1415   1.6357
     2.6665   2.6666

     the Fermi energy is    -2.1307 ev

!    total energy              =    -326.42089844 Ry
     estimated scf accuracy    <       0.00000053 Ry
     smearing contrib. (-TS)   =      -0.00698370 Ry
     internal energy E=F+TS    =    -326.41391473 Ry

     The total energy is F=E-TS. E is the sum of the following terms:
     one-electron contribution =    -856.41016403 Ry
     hartree contribution      =     435.88166567 Ry
     xc contribution           =     -95.00688168 Ry
     ewald contribution        =     189.12146532 Ry

     convergence has been achieved in   7 iterations

     Writing output data file ../tmp/stanene.save/

     init_run     :      5.89s CPU      6.11s WALL (       1 calls)
     electrons    :    122.22s CPU    127.12s WALL (       1 calls)

     Called by init_run:
     wfcinit      :      4.59s CPU      4.70s WALL (       1 calls)
     potinit      :      0.47s CPU      0.49s WALL (       1 calls)
     hinit0       :      0.40s CPU      0.41s WALL (       1 calls)

     Called by electrons:
     c_bands      :    105.01s CPU    107.87s WALL (       7 calls)
     sum_band     :     12.79s CPU     14.05s WALL (       7 calls)
     v_of_rho     :      1.65s CPU      1.74s WALL (       8 calls)
     newd         :      2.80s CPU      3.53s WALL (       8 calls)
     mix_rho      :      0.21s CPU      0.23s WALL (       7 calls)

     Called by c_bands:
     init_us_2    :      0.88s CPU      0.89s WALL (     915 calls)
     cegterg      :    101.63s CPU    104.46s WALL (     427 calls)

     Called by *egterg:
     cdiaghg      :      1.64s CPU      1.65s WALL (    2382 calls)
     h_psi        :     63.85s CPU     66.65s WALL (    2443 calls)
     s_psi        :      4.73s CPU      4.76s WALL (    2443 calls)
     g_psi        :      0.42s CPU      0.42s WALL (    1955 calls)

     Called by h_psi:
     h_psi:calbec :      7.98s CPU      8.26s WALL (    2443 calls)
     vloc_psi     :     50.75s CPU     53.18s WALL (    2443 calls)
     add_vuspsi   :      4.87s CPU      4.95s WALL (    2443 calls)

     General routines
     calbec       :     10.14s CPU     10.49s WALL (    2870 calls)
     fft          :      1.84s CPU      1.91s WALL (     102 calls)
     ffts         :      0.04s CPU      0.04s WALL (      15 calls)
     fftw         :     52.22s CPU     54.63s WALL (   54052 calls)
     interpolate  :      0.18s CPU      0.18s WALL (       8 calls)

     Parallel routines
     fft_scatt_xy :      5.04s CPU      5.39s WALL (   54169 calls)
     fft_scatt_yz :     27.56s CPU     28.50s WALL (   54169 calls)

     PWSCF        :   2m 8.45s CPU   2m13.89s WALL


   This run was terminated on:  22:33:27  23Jan2024            

=------------------------------------------------------------------------------=
   JOB DONE.
=------------------------------------------------------------------------------=
