
     Program PWSCF v.6.7MaX starts on 23Jan2024 at 22:42:35 

     This program is part of the open-source Quantum ESPRESSO suite
     for quantum simulation of materials; please cite
         "P. Giannozzi et al., J. Phys.:Condens. Matter 21 395502 (2009);
         "P. Giannozzi et al., J. Phys.:Condens. Matter 29 465901 (2017);
          URL http://www.quantum-espresso.org", 
     in publications or presentations arising from this work. More details at
     http://www.quantum-espresso.org/quote

     Parallel version (MPI), running on     6 processors

     MPI processes distributed on     1 nodes
     R & G space division:  proc/nbgrp/npool/nimage =       6
     Waiting for input...
     Reading input from standard input

     Current dimensions of program PWSCF are:
     Max number of different atomic species (ntypx) = 10
     Max number of k-points (npk) =  40000
     Max angular momentum in pseudopotentials (lmaxx) =  3

     Subspace diagonalization in iterative solution of the eigenvalue problem:
     one sub-group per band group will be used
     scalapack distributed-memory algorithm (size of sub-group:  2*  2 procs)


     Parallelization info
     --------------------
     sticks:   dense  smooth     PW     G-vecs:    dense   smooth      PW
     Min         431     214     61                75909    26818    4015
     Max         432     215     62                75924    26841    4025
     Sum        2587    1285    367               455489   160939   24117



     bravais-lattice index     =            4
     lattice parameter (alat)  =       8.8506  a.u.
     unit-cell volume          =    2563.9136 (a.u.)^3
     number of atoms/cell      =            2
     number of atomic types    =            1
     number of electrons       =        28.00
     number of Kohn-Sham states=           18
     kinetic-energy cutoff     =      60.0000  Ry
     charge density cutoff     =     480.0000  Ry
     scf convergence threshold =      1.0E-06
     mixing beta               =       0.7000
     number of iterations used =            8  plain     mixing
     Exchange-correlation= SLA  PW   PBE  PBE
                           (   1   4   3   4   0   0   0)

     celldm(1)=   8.850584  celldm(2)=   0.000000  celldm(3)=   4.270286
     celldm(4)=   0.000000  celldm(5)=   0.000000  celldm(6)=   0.000000

     crystal axes: (cart. coord. in units of alat)
               a(1) = (   1.000000   0.000000   0.000000 )  
               a(2) = (  -0.500000   0.866025   0.000000 )  
               a(3) = (   0.000000   0.000000   4.270286 )  

     reciprocal axes: (cart. coord. in units 2 pi/alat)
               b(1) = (  1.000000  0.577350 -0.000000 )  
               b(2) = (  0.000000  1.154701  0.000000 )  
               b(3) = (  0.000000 -0.000000  0.234176 )  


     PseudoPot. # 1 for Sn read from file:
     ../pseudo/Sn_pbe_v1.uspp.F.UPF
     MD5 check sum: 4cf58ce39ec5d5d420df3dd08604eb00
     Pseudo is Ultrasoft + core correction, Zval = 14.0
     Generated by new atomic code, or converted to UPF format
     Using radial grid of  891 points,  6 beta functions with: 
                l(1) =   0
                l(2) =   0
                l(3) =   1
                l(4) =   1
                l(5) =   2
                l(6) =   2
     Q(r) pseudized with  6 coefficients,  rinner =    1.200   1.200   1.200
                                                       1.200   1.200

     atomic species   valence    mass     pseudopotential
        Sn            14.00   118.71000     Sn( 1.00)

      6 Sym. Ops. (no inversion) found



   Cartesian axes

     site n.     atom                  positions (alat units)
         1           Sn  tau(   1) = (   0.0000000   0.5773503   2.1351428  )
         2           Sn  tau(   2) = (   0.5000000   0.2886751   1.9552503  )

     number of k points=    61  Fermi-Dirac smearing, width (Ry)=  0.0400
                       cart. coord. in units 2pi/alat
        k(    1) = (   0.0000000   0.0000000   0.0000000), wk =   0.0034722
        k(    2) = (   0.0000000   0.0481125   0.0000000), wk =   0.0208333
        k(    3) = (   0.0000000   0.0962250   0.0000000), wk =   0.0208333
        k(    4) = (   0.0000000   0.1443376   0.0000000), wk =   0.0208333
        k(    5) = (   0.0000000   0.1924501   0.0000000), wk =   0.0208333
        k(    6) = (   0.0000000   0.2405626   0.0000000), wk =   0.0208333
        k(    7) = (   0.0000000   0.2886751   0.0000000), wk =   0.0208333
        k(    8) = (   0.0000000   0.3367877   0.0000000), wk =   0.0208333
        k(    9) = (   0.0000000   0.3849002   0.0000000), wk =   0.0208333
        k(   10) = (   0.0000000   0.4330127   0.0000000), wk =   0.0208333
        k(   11) = (   0.0000000   0.4811252   0.0000000), wk =   0.0208333
        k(   12) = (   0.0000000   0.5292377   0.0000000), wk =   0.0208333
        k(   13) = (   0.0000000  -0.5773503   0.0000000), wk =   0.0104167
        k(   14) = (   0.0416667   0.0721688   0.0000000), wk =   0.0208333
        k(   15) = (   0.0416667   0.1202813   0.0000000), wk =   0.0416667
        k(   16) = (   0.0416667   0.1683938   0.0000000), wk =   0.0416667
        k(   17) = (   0.0416667   0.2165064   0.0000000), wk =   0.0416667
        k(   18) = (   0.0416667   0.2646189   0.0000000), wk =   0.0416667
        k(   19) = (   0.0416667   0.3127314   0.0000000), wk =   0.0416667
        k(   20) = (   0.0416667   0.3608439   0.0000000), wk =   0.0416667
        k(   21) = (   0.0416667   0.4089564   0.0000000), wk =   0.0416667
        k(   22) = (   0.0416667   0.4570690   0.0000000), wk =   0.0416667
        k(   23) = (   0.0416667   0.5051815   0.0000000), wk =   0.0416667
        k(   24) = (   0.0416667   0.5532940   0.0000000), wk =   0.0416667
        k(   25) = (   0.0833333   0.1443376   0.0000000), wk =   0.0208333
        k(   26) = (   0.0833333   0.1924501   0.0000000), wk =   0.0416667
        k(   27) = (   0.0833333   0.2405626   0.0000000), wk =   0.0416667
        k(   28) = (   0.0833333   0.2886751   0.0000000), wk =   0.0416667
        k(   29) = (   0.0833333   0.3367877   0.0000000), wk =   0.0416667
        k(   30) = (   0.0833333   0.3849002   0.0000000), wk =   0.0416667
        k(   31) = (   0.0833333   0.4330127   0.0000000), wk =   0.0416667
        k(   32) = (   0.0833333   0.4811252   0.0000000), wk =   0.0416667
        k(   33) = (   0.0833333   0.5292377   0.0000000), wk =   0.0416667
        k(   34) = (   0.0833333   0.5773503   0.0000000), wk =   0.0208333
        k(   35) = (   0.1250000   0.2165064   0.0000000), wk =   0.0208333
        k(   36) = (   0.1250000   0.2646189   0.0000000), wk =   0.0416667
        k(   37) = (   0.1250000   0.3127314   0.0000000), wk =   0.0416667
        k(   38) = (   0.1250000   0.3608439   0.0000000), wk =   0.0416667
        k(   39) = (   0.1250000   0.4089564   0.0000000), wk =   0.0416667
        k(   40) = (   0.1250000   0.4570690   0.0000000), wk =   0.0416667
        k(   41) = (   0.1250000   0.5051815   0.0000000), wk =   0.0416667
        k(   42) = (   0.1250000   0.5532940   0.0000000), wk =   0.0416667
        k(   43) = (   0.1666667   0.2886751   0.0000000), wk =   0.0208333
        k(   44) = (   0.1666667   0.3367877   0.0000000), wk =   0.0416667
        k(   45) = (   0.1666667   0.3849002   0.0000000), wk =   0.0416667
        k(   46) = (   0.1666667   0.4330127   0.0000000), wk =   0.0416667
        k(   47) = (   0.1666667   0.4811252   0.0000000), wk =   0.0416667
        k(   48) = (   0.1666667   0.5292377   0.0000000), wk =   0.0416667
        k(   49) = (   0.1666667   0.5773503   0.0000000), wk =   0.0208333
        k(   50) = (   0.2083333   0.3608439   0.0000000), wk =   0.0208333
        k(   51) = (   0.2083333   0.4089564   0.0000000), wk =   0.0416667
        k(   52) = (   0.2083333   0.4570690   0.0000000), wk =   0.0416667
        k(   53) = (   0.2083333   0.5051815   0.0000000), wk =   0.0416667
        k(   54) = (   0.2083333   0.5532940   0.0000000), wk =   0.0416667
        k(   55) = (   0.2500000   0.4330127   0.0000000), wk =   0.0208333
        k(   56) = (   0.2500000   0.4811252   0.0000000), wk =   0.0416667
        k(   57) = (   0.2500000   0.5292377   0.0000000), wk =   0.0416667
        k(   58) = (   0.2500000   0.5773503   0.0000000), wk =   0.0208333
        k(   59) = (   0.2916667   0.5051815   0.0000000), wk =   0.0208333
        k(   60) = (   0.2916667   0.5532940   0.0000000), wk =   0.0416667
        k(   61) = (   0.3333333   0.5773503   0.0000000), wk =   0.0069444

     Dense  grid:   455489 G-vectors     FFT dimensions: (  64,  64, 270)

     Smooth grid:   160939 G-vectors     FFT dimensions: (  45,  45, 192)

     Estimated max dynamical RAM per process >     322.30 MB

     Estimated total dynamical RAM >       1.89 GB

     Initial potential from superposition of free atoms

     starting charge   25.99991, renormalised to   28.00000

     negative rho (up, down):  5.949E-04 0.000E+00
     Starting wfcs are   18 randomized atomic wfcs

     total cpu time spent up to now is        6.0 secs

     Self-consistent Calculation

     iteration #  1     ecut=    60.00 Ry     beta= 0.70
     Davidson diagonalization with overlap
     ethr =  1.00E-02,  avg # of iterations =  8.8

     total cpu time spent up to now is       26.5 secs

     total energy              =    -325.40476017 Ry
     estimated scf accuracy    <       2.58758037 Ry

     iteration #  2     ecut=    60.00 Ry     beta= 0.70
     Davidson diagonalization with overlap
     ethr =  9.24E-03,  avg # of iterations =  4.0

     total cpu time spent up to now is       45.6 secs

     total energy              =    -326.37756248 Ry
     estimated scf accuracy    <       0.48814051 Ry

     iteration #  3     ecut=    60.00 Ry     beta= 0.70
     Davidson diagonalization with overlap
     ethr =  1.74E-03,  avg # of iterations =  2.0

     total cpu time spent up to now is       61.4 secs

     total energy              =    -326.45167010 Ry
     estimated scf accuracy    <       0.00979753 Ry

     iteration #  4     ecut=    60.00 Ry     beta= 0.70
     Davidson diagonalization with overlap
     ethr =  3.50E-05,  avg # of iterations =  8.9

     negative rho (up, down):  2.686E-05 0.000E+00

     total cpu time spent up to now is       82.5 secs

     total energy              =    -326.45440354 Ry
     estimated scf accuracy    <       0.00033484 Ry

     iteration #  5     ecut=    60.00 Ry     beta= 0.70
     Davidson diagonalization with overlap
     c_bands:  1 eigenvalues not converged
     ethr =  1.20E-06,  avg # of iterations =  6.4

     negative rho (up, down):  3.371E-05 0.000E+00

     total cpu time spent up to now is       98.7 secs

     total energy              =    -326.45441909 Ry
     estimated scf accuracy    <       0.00002701 Ry

     iteration #  6     ecut=    60.00 Ry     beta= 0.70
     Davidson diagonalization with overlap
     ethr =  9.65E-08,  avg # of iterations =  3.2

     negative rho (up, down):  4.173E-05 0.000E+00

     total cpu time spent up to now is      115.9 secs

     total energy              =    -326.45442385 Ry
     estimated scf accuracy    <       0.00001720 Ry

     iteration #  7     ecut=    60.00 Ry     beta= 0.70
     Davidson diagonalization with overlap
     ethr =  6.14E-08,  avg # of iterations =  2.5

     negative rho (up, down):  6.395E-05 0.000E+00

     total cpu time spent up to now is      129.3 secs

     End of self-consistent calculation

          k = 0.0000 0.0000 0.0000 ( 20025 PWs)   bands (ev):

   -23.6624 -23.6624 -23.5753 -23.5753 -23.5404 -23.4689 -23.3520 -23.3520
   -23.3040 -23.3040 -11.5136  -5.3647  -2.5515  -2.5515  -2.0680  -0.1235
     0.9534   0.9534

          k = 0.0000 0.0481 0.0000 ( 20035 PWs)   bands (ev):

   -23.6633 -23.6632 -23.5750 -23.5739 -23.5401 -23.4680 -23.3544 -23.3542
   -23.3025 -23.3018 -11.4989  -5.3893  -2.8315  -2.5840  -1.7683  -0.1230
     0.9244   1.0093

          k = 0.0000 0.0962 0.0000 ( 20005 PWs)   bands (ev):

   -23.6659 -23.6651 -23.5747 -23.5701 -23.5391 -23.4653 -23.3605 -23.3598
   -23.2991 -23.2964 -11.4548  -5.4715  -3.2106  -2.6744  -1.3353  -0.1248
     0.8721   1.1691

          k = 0.0000 0.1443 0.0000 ( 20065 PWs)   bands (ev):

   -23.6694 -23.6676 -23.5754 -23.5645 -23.5370 -23.4610 -23.3685 -23.3670
   -23.2951 -23.2894 -11.3816  -5.6321  -3.5116  -2.8060  -0.9722  -0.1380
     0.8816   1.4127

          k = 0.0000 0.1925 0.0000 ( 20113 PWs)   bands (ev):

   -23.6735 -23.6700 -23.5777 -23.5578 -23.5343 -23.4549 -23.3773 -23.3745
   -23.2917 -23.2820 -11.2799  -5.8854  -3.6970  -2.9599  -0.7706  -0.1661
     1.0352   1.7153

          k = 0.0000 0.2406 0.0000 ( 20071 PWs)   bands (ev):

   -23.6776 -23.6718 -23.5817 -23.5506 -23.5316 -23.4474 -23.3860 -23.3812
   -23.2895 -23.2748 -11.1505  -6.2197  -3.7693  -3.1203  -0.7534  -0.2036
     1.3113   2.2403

          k = 0.0000 0.2887 0.0000 ( 20087 PWs)   bands (ev):

   -23.6814 -23.6726 -23.5871 -23.5435 -23.5299 -23.4387 -23.3943 -23.3862
   -23.2887 -23.2682 -10.9948  -6.6042  -3.7542  -3.2752  -0.8516  -0.2625
     1.5743   2.4191

          k = 0.0000 0.3368 0.0000 ( 20109 PWs)   bands (ev):

   -23.6847 -23.6721 -23.5935 -23.5370 -23.5295 -23.4298 -23.4017 -23.3889
   -23.2894 -23.2623 -10.8151  -7.0081  -3.6796  -3.4163  -0.9977  -0.3540
     1.7481   2.6308

          k = 0.0000 0.3849 0.0000 ( 20145 PWs)   bands (ev):

   -23.6874 -23.6704 -23.6005 -23.5312 -23.5301 -23.4222 -23.4082 -23.3886
   -23.2916 -23.2574 -10.6159  -7.4077  -3.5679  -3.5377  -1.1595  -0.4693
     1.8878   2.8472

          k = 0.0000 0.4330 0.0000 ( 20161 PWs)   bands (ev):

   -23.6895 -23.6677 -23.6077 -23.5313 -23.5266 -23.4170 -23.4133 -23.3849
   -23.2948 -23.2534 -10.4053  -7.7828  -3.6356  -3.4385  -1.3217  -0.5866
     2.0387   3.0647

          k = 0.0000 0.4811 0.0000 ( 20157 PWs)   bands (ev):

   -23.6910 -23.6643 -23.6145 -23.5325 -23.5232 -23.4171 -23.4144 -23.3793
   -23.2984 -23.2505 -10.1998  -8.1097  -3.7071  -3.3125  -1.4692  -0.6842
     2.2030   3.2407

          k = 0.0000 0.5292 0.0000 ( 20142 PWs)   bands (ev):

   -23.6919 -23.6613 -23.6196 -23.5334 -23.5212 -23.4193 -23.4133 -23.3745
   -23.3014 -23.2488 -10.0343  -8.3496  -3.7507  -3.2166  -1.5781  -0.7474
     2.3506   3.2976

          k = 0.0000-0.5774 0.0000 ( 20152 PWs)   bands (ev):

   -23.6922 -23.6600 -23.6216 -23.5338 -23.5205 -23.4201 -23.4130 -23.3726
   -23.3026 -23.2482  -9.9667  -8.4422  -3.7654  -3.1798  -1.6193  -0.7690
     2.4161   3.2910

          k = 0.0417 0.0722 0.0000 ( 20017 PWs)   bands (ev):

   -23.6651 -23.6644 -23.5746 -23.5715 -23.5394 -23.4662 -23.3586 -23.3580
   -23.3002 -23.2979 -11.4695  -5.4427  -3.1120  -2.6497  -1.4449  -0.1237
     0.8741   1.1258

          k = 0.0417 0.1203 0.0000 ( 20039 PWs)   bands (ev):

   -23.6683 -23.6665 -23.5747 -23.5670 -23.5377 -23.4628 -23.3656 -23.3643
   -23.2969 -23.2915 -11.4108  -5.5645  -3.4119  -2.7706  -1.0647  -0.1322
     0.8244   1.3482

          k = 0.0417 0.1684 0.0000 ( 20081 PWs)   bands (ev):

   -23.6723 -23.6687 -23.5763 -23.5611 -23.5348 -23.4577 -23.3737 -23.3716
   -23.2937 -23.2842 -11.3234  -5.7732  -3.6309  -2.9245  -0.7693  -0.1575
     0.8690   1.6449

          k = 0.0417 0.2165 0.0000 ( 20075 PWs)   bands (ev):

   -23.6766 -23.6705 -23.5796 -23.5545 -23.5315 -23.4511 -23.3822 -23.3786
   -23.2913 -23.2767 -11.2077  -6.0694  -3.7434  -3.0913  -0.6524  -0.1908
     1.0686   1.9710

          k = 0.0417 0.2646 0.0000 ( 20107 PWs)   bands (ev):

   -23.6808 -23.6715 -23.5845 -23.5478 -23.5285 -23.4434 -23.3905 -23.3844
   -23.2902 -23.2696 -11.0650  -6.4298  -3.7627  -3.2554  -0.7074  -0.2252
     1.3651   2.2038

          k = 0.0417 0.3127 0.0000 ( 20105 PWs)   bands (ev):

   -23.6846 -23.6714 -23.5905 -23.5415 -23.5266 -23.4351 -23.3981 -23.3881
   -23.2906 -23.2632 -10.8970  -6.8233  -3.7176  -3.4030  -0.8485  -0.2836
     1.6284   2.4089

          k = 0.0417 0.3608 0.0000 ( 20127 PWs)   bands (ev):

   -23.6877 -23.6702 -23.5973 -23.5362 -23.5256 -23.4273 -23.4048 -23.3891
   -23.2924 -23.2576 -10.7069  -7.2240  -3.6577  -3.5005  -1.0214  -0.3708
     1.8112   2.6497

          k = 0.0417 0.4090 0.0000 ( 20135 PWs)   bands (ev):

   -23.6903 -23.6678 -23.6044 -23.5327 -23.5246 -23.4216 -23.4101 -23.3869
   -23.2954 -23.2530 -10.5005  -7.6110  -3.6998  -3.4455  -1.2033  -0.4713
     1.9670   2.8353

          k = 0.0417 0.4571 0.0000 ( 20146 PWs)   bands (ev):

   -23.6922 -23.6646 -23.6115 -23.5315 -23.5230 -23.4190 -23.4134 -23.3819
   -23.2992 -23.2494 -10.2893  -7.9637  -3.7758  -3.3219  -1.3787  -0.5643
     2.1270   2.9577

          k = 0.0417 0.5052 0.0000 ( 20148 PWs)   bands (ev):

   -23.6934 -23.6612 -23.6175 -23.5316 -23.5213 -23.4195 -23.4140 -23.3764
   -23.3028 -23.2470 -10.0973  -8.2525  -3.8318  -3.2054  -1.5258  -0.6336
     2.2801   3.0451

          k = 0.0417 0.5533 0.0000 ( 20150 PWs)   bands (ev):

   -23.6940 -23.6588 -23.6212 -23.5319 -23.5203 -23.4205 -23.4139 -23.3729
   -23.3052 -23.2458  -9.9721  -8.4268  -3.8607  -3.1331  -1.6134  -0.6701
     2.3822   3.1439

          k = 0.0833 0.1443 0.0000 ( 20061 PWs)   bands (ev):

   -23.6721 -23.6680 -23.5756 -23.5627 -23.5348 -23.4587 -23.3725 -23.3705
   -23.2948 -23.2846 -11.3379  -5.7357  -3.5969  -2.9286  -0.7420  -0.1576
     0.7710   1.6466

          k = 0.0833 0.1925 0.0000 ( 20087 PWs)   bands (ev):

   -23.6766 -23.6693 -23.5782 -23.5574 -23.5306 -23.4535 -23.3800 -23.3773
   -23.2932 -23.2770 -11.2365  -5.9907  -3.7107  -3.1154  -0.4846  -0.2058
     0.8131   1.9975

          k = 0.0833 0.2406 0.0000 ( 20121 PWs)   bands (ev):

   -23.6813 -23.6700 -23.5826 -23.5516 -23.5259 -23.4473 -23.3876 -23.3833
   -23.2927 -23.2693 -11.1074  -6.3158  -3.7453  -3.3045  -0.4583  -0.1985
     1.0169   2.1780

          k = 0.0833 0.2887 0.0000 ( 20106 PWs)   bands (ev):

   -23.6857 -23.6698 -23.5883 -23.5458 -23.5219 -23.4407 -23.3949 -23.3876
   -23.2934 -23.2621 -10.9520  -6.6851  -3.7235  -3.4708  -0.6118  -0.1722
     1.3332   2.2531

          k = 0.0833 0.3368 0.0000 ( 20114 PWs)   bands (ev):

   -23.6896 -23.6685 -23.5948 -23.5404 -23.5191 -23.4343 -23.4015 -23.3893
   -23.2955 -23.2556 -10.7726  -7.0733  -3.7323  -3.5361  -0.8132  -0.1938
     1.6459   2.3880

          k = 0.0833 0.3849 0.0000 ( 20126 PWs)   bands (ev):

   -23.6929 -23.6662 -23.6018 -23.5357 -23.5178 -23.4290 -23.4070 -23.3879
   -23.2989 -23.2500 -10.5734  -7.4595  -3.8362  -3.4467  -1.0306  -0.2454
     1.8845   2.5464

          k = 0.0833 0.4330 0.0000 ( 20149 PWs)   bands (ev):

   -23.6955 -23.6630 -23.6088 -23.5319 -23.5176 -23.4254 -23.4112 -23.3838
   -23.3031 -23.2455 -10.3621  -7.8249  -3.9395  -3.3106  -1.2472  -0.3066
     2.0672   2.6528

          k = 0.0833 0.4811 0.0000 ( 20151 PWs)   bands (ev):

   -23.6973 -23.6594 -23.6153 -23.5291 -23.5181 -23.4234 -23.4142 -23.3784
   -23.3076 -23.2422 -10.1549  -8.1462  -4.0175  -3.1703  -1.4432  -0.3609
     2.2106   2.7477

          k = 0.0833 0.5292 0.0000 ( 20157 PWs)   bands (ev):

   -23.6984 -23.6563 -23.6203 -23.5273 -23.5187 -23.4224 -23.4158 -23.3737
   -23.3113 -23.2402  -9.9865  -8.3847  -4.0653  -3.0586  -1.5886  -0.3973
     2.2965   2.8892

          k = 0.0833 0.5774 0.0000 ( 20154 PWs)   bands (ev):

   -23.6988 -23.6549 -23.6222 -23.5266 -23.5191 -23.4222 -23.4163 -23.3718
   -23.3128 -23.2396  -9.9170  -8.4777  -4.0814  -3.0144  -1.6441  -0.4101
     2.3222   3.0091

          k = 0.1250 0.2165 0.0000 ( 20099 PWs)   bands (ev):

   -23.6815 -23.6694 -23.5819 -23.5531 -23.5248 -23.4488 -23.3865 -23.3830
   -23.2937 -23.2691 -11.1215  -6.2760  -3.7308  -3.3374  -0.3077  -0.1864
     0.8205   2.2006

          k = 0.1250 0.2646 0.0000 ( 20119 PWs)   bands (ev):

   -23.6865 -23.6687 -23.5871 -23.5482 -23.5186 -23.4444 -23.3930 -23.3874
   -23.2954 -23.2611 -10.9795  -6.6102  -3.7001  -3.5518  -0.4576   0.0117
     0.9846   2.2428

          k = 0.1250 0.3127 0.0000 ( 20122 PWs)   bands (ev):

   -23.6913 -23.6671 -23.5933 -23.5431 -23.5133 -23.4404 -23.3991 -23.3893
   -23.2983 -23.2537 -10.8122  -6.9724  -3.7838  -3.5855  -0.6556   0.0865
     1.3030   2.2990

          k = 0.1250 0.3608 0.0000 ( 20112 PWs)   bands (ev):

   -23.6954 -23.6646 -23.6000 -23.5380 -23.5099 -23.4371 -23.4047 -23.3884
   -23.3024 -23.2470 -10.6225  -7.3438  -3.9562  -3.4662  -0.8818   0.0900
     1.6673   2.3532

          k = 0.1250 0.4090 0.0000 ( 20146 PWs)   bands (ev):

   -23.6989 -23.6613 -23.6068 -23.5332 -23.5086 -23.4341 -23.4095 -23.3849
   -23.3074 -23.2414 -10.4157  -7.7074  -4.1011  -3.3172  -1.1187   0.0645
     1.9798   2.3731

          k = 0.1250 0.4571 0.0000 ( 20145 PWs)   bands (ev):

   -23.7016 -23.6575 -23.6134 -23.5286 -23.5096 -23.4311 -23.4136 -23.3799
   -23.3129 -23.2370 -10.2023  -8.0444  -4.2117  -3.1571  -1.3476   0.0313
     2.1604   2.4444

          k = 0.1250 0.5052 0.0000 ( 20141 PWs)   bands (ev):

   -23.7034 -23.6537 -23.6190 -23.5242 -23.5122 -23.4280 -23.4171 -23.3747
   -23.3180 -23.2340 -10.0053  -8.3264  -4.2861  -3.0098  -1.5424   0.0030
     2.1848   2.6518

          k = 0.1250 0.5533 0.0000 ( 20145 PWs)   bands (ev):

   -23.7043 -23.6511 -23.6226 -23.5199 -23.5157 -23.4253 -23.4200 -23.3713
   -23.3213 -23.2325  -9.8740  -8.5011  -4.3234  -2.9144  -1.6622  -0.0130
     2.1761   2.8734

          k = 0.1667 0.2887 0.0000 ( 20113 PWs)   bands (ev):

   -23.6919 -23.6666 -23.5927 -23.5440 -23.5109 -23.4430 -23.3983 -23.3894
   -23.2994 -23.2529 -10.8255  -6.9366  -3.8031  -3.6060  -0.6049   0.2980
     1.0552   2.3117

          k = 0.1667 0.3368 0.0000 ( 20110 PWs)   bands (ev):

   -23.6969 -23.6637 -23.5990 -23.5393 -23.5041 -23.4429 -23.4034 -23.3886
   -23.3044 -23.2452 -10.6473  -7.2803  -4.0260  -3.4815  -0.8043   0.4574
     1.3131   2.3690

          k = 0.1667 0.3849 0.0000 ( 20115 PWs)   bands (ev):

   -23.7013 -23.6602 -23.6056 -23.5342 -23.4996 -23.4428 -23.4083 -23.3855
   -23.3104 -23.2385 -10.4485  -7.6273  -4.2157  -3.3287  -1.0311   0.4991
     1.6983   2.2882

          k = 0.1667 0.4330 0.0000 ( 20139 PWs)   bands (ev):

   -23.7049 -23.6561 -23.6120 -23.5289 -23.4985 -23.4411 -23.4130 -23.3809
   -23.3170 -23.2329 -10.2357  -7.9629  -4.3659  -3.1587  -1.2665   0.4977
     2.0886   2.1726

          k = 0.1667 0.4811 0.0000 ( 20145 PWs)   bands (ev):

   -23.7076 -23.6520 -23.6178 -23.5235 -23.5006 -23.4374 -23.4177 -23.3757
   -23.3235 -23.2287 -10.0233  -8.2671  -4.4741  -2.9873  -1.4886   0.4853
     2.0701   2.4424

          k = 0.1667 0.5292 0.0000 ( 20147 PWs)   bands (ev):

   -23.7093 -23.6484 -23.6224 -23.5182 -23.5045 -23.4326 -23.4224 -23.3713
   -23.3287 -23.2262  -9.8447  -8.5023  -4.5393  -2.8450  -1.6628   0.4742
     2.0080   2.7438

          k = 0.1667 0.5774 0.0000 ( 20135 PWs)   bands (ev):

   -23.7098 -23.6468 -23.6243 -23.5150 -23.5074 -23.4282 -23.4267 -23.3694
   -23.3308 -23.2253  -9.7682  -8.5980  -4.5611  -2.7855  -1.7333   0.4700
     1.9868   2.9110

          k = 0.2083 0.3608 0.0000 ( 20119 PWs)   bands (ev):

   -23.7022 -23.6598 -23.6052 -23.5346 -23.4954 -23.4469 -23.4079 -23.3857
   -23.3115 -23.2374 -10.4595  -7.5986  -4.2570  -3.3338  -1.0006   0.7894
     1.4343   2.3291

          k = 0.2083 0.4090 0.0000 ( 20133 PWs)   bands (ev):

   -23.7068 -23.6554 -23.6113 -23.5292 -23.4891 -23.4498 -23.4127 -23.3813
   -23.3191 -23.2307 -10.2530  -7.9172  -4.4508  -3.1626  -1.2206   0.9476
     1.7545   2.1574

          k = 0.2083 0.4571 0.0000 ( 20137 PWs)   bands (ev):

   -23.7104 -23.6509 -23.6170 -23.5234 -23.4876 -23.4488 -23.4178 -23.3764
   -23.3268 -23.2253 -10.0360  -8.2227  -4.5995  -2.9796  -1.4460   0.9934
     1.9799   2.1974

          k = 0.2083 0.5052 0.0000 ( 20163 PWs)   bands (ev):

   -23.7129 -23.6467 -23.6220 -23.5176 -23.4905 -23.4438 -23.4235 -23.3715
   -23.3337 -23.2216  -9.8279  -8.4922  -4.6997  -2.8042  -1.6523   1.0073
     1.8761   2.5828

          k = 0.2083 0.5533 0.0000 ( 20157 PWs)   bands (ev):

   -23.7142 -23.6437 -23.6254 -23.5131 -23.4942 -23.4370 -23.4298 -23.3681
   -23.3383 -23.2197  -9.6794  -8.6720  -4.7501  -2.6810  -1.7917   1.0120
     1.8179   2.8806

          k = 0.2500 0.4330 0.0000 ( 20149 PWs)   bands (ev):

   -23.7114 -23.6506 -23.6167 -23.5233 -23.4798 -23.4561 -23.4179 -23.3766
   -23.3279 -23.2241 -10.0406  -8.2063  -4.6435  -2.9780  -1.4299   1.3150
     1.9199   1.9970

          k = 0.2500 0.4811 0.0000 ( 20153 PWs)   bands (ev):

   -23.7149 -23.6459 -23.6218 -23.5173 -23.4762 -23.4566 -23.4240 -23.3717
   -23.3362 -23.2192  -9.8206  -8.4830  -4.7851  -2.7859  -1.6426   1.4801
     1.8464   2.2938

          k = 0.2500 0.5292 0.0000 ( 20133 PWs)   bands (ev):

   -23.7171 -23.6419 -23.6260 -23.5119 -23.4794 -23.4495 -23.4311 -23.3672
   -23.3430 -23.2161  -9.6191  -8.7192  -4.8713  -2.6116  -1.8305   1.5477
     1.7317   2.7108

          k = 0.2500 0.5774 0.0000 ( 20123 PWs)   bands (ev):

   -23.7178 -23.6400 -23.6280 -23.5095 -23.4816 -23.4430 -23.4371 -23.3651
   -23.3460 -23.2151  -9.5206  -8.8295  -4.9003  -2.5277  -1.9191   1.5829
     1.6747   2.9332

          k = 0.2917 0.5052 0.0000 ( 20137 PWs)   bands (ev):

   -23.7180 -23.6413 -23.6262 -23.5115 -23.4655 -23.4627 -23.4316 -23.3669
   -23.3446 -23.2149  -9.5976  -8.7356  -4.9131  -2.5869  -1.8443   1.6379
     1.9917   2.4502

          k = 0.2917 0.5533 0.0000 ( 20132 PWs)   bands (ev):

   -23.7197 -23.6376 -23.6298 -23.5077 -23.4682 -23.4541 -23.4398 -23.3626
   -23.3509 -23.2127  -9.4005  -8.9476  -4.9783  -2.4136  -2.0191   1.5987
     2.1252   2.7432

          k = 0.3333 0.5774 0.0000 ( 20133 PWs)   bands (ev):

   -23.7206 -23.6336 -23.6335 -23.5061 -23.4599 -23.4578 -23.4453 -23.3573
   -23.3573 -23.2115  -9.1759  -9.1751  -5.0146  -2.2152  -2.2142   1.5659
     2.5600   2.5606

     the Fermi energy is    -2.1563 ev

!    total energy              =    -326.45442694 Ry
     estimated scf accuracy    <       0.00000072 Ry
     smearing contrib. (-TS)   =      -0.08920761 Ry
     internal energy E=F+TS    =    -326.36521933 Ry

     The total energy is F=E-TS. E is the sum of the following terms:
     one-electron contribution =    -856.14256669 Ry
     hartree contribution      =     435.65873512 Ry
     xc contribution           =     -95.00285308 Ry
     ewald contribution        =     189.12146532 Ry

     convergence has been achieved in   7 iterations

     Writing output data file ../tmp/stanene.save/

     init_run     :      5.68s CPU      5.93s WALL (       1 calls)
     electrons    :    118.40s CPU    123.27s WALL (       1 calls)

     Called by init_run:
     wfcinit      :      4.27s CPU      4.41s WALL (       1 calls)
     potinit      :      0.38s CPU      0.42s WALL (       1 calls)
     hinit0       :      0.55s CPU      0.56s WALL (       1 calls)

     Called by electrons:
     c_bands      :    102.60s CPU    105.76s WALL (       7 calls)
     sum_band     :     12.29s CPU     13.38s WALL (       7 calls)
     v_of_rho     :      1.20s CPU      1.32s WALL (       8 calls)
     newd         :      2.40s CPU      2.98s WALL (       8 calls)
     mix_rho      :      0.22s CPU      0.22s WALL (       7 calls)

     Called by c_bands:
     init_us_2    :      0.82s CPU      0.83s WALL (     915 calls)
     cegterg      :     99.31s CPU    102.47s WALL (     427 calls)

     Called by *egterg:
     cdiaghg      :      1.65s CPU      1.67s WALL (    2600 calls)
     h_psi        :     62.12s CPU     65.11s WALL (    2661 calls)
     s_psi        :      4.71s CPU      4.75s WALL (    2661 calls)
     g_psi        :      0.43s CPU      0.43s WALL (    2173 calls)

     Called by h_psi:
     h_psi:calbec :      8.04s CPU      8.30s WALL (    2661 calls)
     vloc_psi     :     48.98s CPU     51.63s WALL (    2661 calls)
     add_vuspsi   :      4.85s CPU      4.93s WALL (    2661 calls)

     General routines
     calbec       :     10.19s CPU     10.52s WALL (    3088 calls)
     fft          :      1.31s CPU      1.39s WALL (     102 calls)
     ffts         :      0.03s CPU      0.04s WALL (      15 calls)
     fftw         :     50.64s CPU     53.25s WALL (   56002 calls)
     interpolate  :      0.13s CPU      0.15s WALL (       8 calls)

     Parallel routines
     fft_scatt_xy :      4.72s CPU      5.08s WALL (   56119 calls)
     fft_scatt_yz :     26.04s CPU     27.01s WALL (   56119 calls)

     PWSCF        :   2m 4.28s CPU   2m 9.67s WALL


   This run was terminated on:  22:44:45  23Jan2024            

=------------------------------------------------------------------------------=
   JOB DONE.
=------------------------------------------------------------------------------=
