
     Program PWSCF v.6.7MaX starts on 23Jan2024 at 22:33:27 

     This program is part of the open-source Quantum ESPRESSO suite
     for quantum simulation of materials; please cite
         "P. Giannozzi et al., J. Phys.:Condens. Matter 21 395502 (2009);
         "P. Giannozzi et al., J. Phys.:Condens. Matter 29 465901 (2017);
          URL http://www.quantum-espresso.org", 
     in publications or presentations arising from this work. More details at
     http://www.quantum-espresso.org/quote

     Parallel version (MPI), running on     6 processors

     MPI processes distributed on     1 nodes
     R & G space division:  proc/nbgrp/npool/nimage =       6
     Waiting for input...
     Reading input from standard input

     Current dimensions of program PWSCF are:
     Max number of different atomic species (ntypx) = 10
     Max number of k-points (npk) =  40000
     Max angular momentum in pseudopotentials (lmaxx) =  3

     Subspace diagonalization in iterative solution of the eigenvalue problem:
     one sub-group per band group will be used
     scalapack distributed-memory algorithm (size of sub-group:  2*  2 procs)


     Parallelization info
     --------------------
     sticks:   dense  smooth     PW     G-vecs:    dense   smooth      PW
     Min         431     214     61                75909    26818    4015
     Max         432     215     62                75924    26841    4025
     Sum        2587    1285    367               455489   160939   24117



     bravais-lattice index     =            4
     lattice parameter (alat)  =       8.8506  a.u.
     unit-cell volume          =    2563.9136 (a.u.)^3
     number of atoms/cell      =            2
     number of atomic types    =            1
     number of electrons       =        28.00
     number of Kohn-Sham states=           18
     kinetic-energy cutoff     =      60.0000  Ry
     charge density cutoff     =     480.0000  Ry
     scf convergence threshold =      1.0E-06
     mixing beta               =       0.7000
     number of iterations used =            8  plain     mixing
     Exchange-correlation= SLA  PW   PBE  PBE
                           (   1   4   3   4   0   0   0)

     celldm(1)=   8.850584  celldm(2)=   0.000000  celldm(3)=   4.270286
     celldm(4)=   0.000000  celldm(5)=   0.000000  celldm(6)=   0.000000

     crystal axes: (cart. coord. in units of alat)
               a(1) = (   1.000000   0.000000   0.000000 )  
               a(2) = (  -0.500000   0.866025   0.000000 )  
               a(3) = (   0.000000   0.000000   4.270286 )  

     reciprocal axes: (cart. coord. in units 2 pi/alat)
               b(1) = (  1.000000  0.577350 -0.000000 )  
               b(2) = (  0.000000  1.154701  0.000000 )  
               b(3) = (  0.000000 -0.000000  0.234176 )  


     PseudoPot. # 1 for Sn read from file:
     ../pseudo/Sn_pbe_v1.uspp.F.UPF
     MD5 check sum: 4cf58ce39ec5d5d420df3dd08604eb00
     Pseudo is Ultrasoft + core correction, Zval = 14.0
     Generated by new atomic code, or converted to UPF format
     Using radial grid of  891 points,  6 beta functions with: 
                l(1) =   0
                l(2) =   0
                l(3) =   1
                l(4) =   1
                l(5) =   2
                l(6) =   2
     Q(r) pseudized with  6 coefficients,  rinner =    1.200   1.200   1.200
                                                       1.200   1.200

     atomic species   valence    mass     pseudopotential
        Sn            14.00   118.71000     Sn( 1.00)

      6 Sym. Ops. (no inversion) found



   Cartesian axes

     site n.     atom                  positions (alat units)
         1           Sn  tau(   1) = (   0.0000000   0.5773503   2.1351428  )
         2           Sn  tau(   2) = (   0.5000000   0.2886751   1.9552503  )

     number of k points=    61  Fermi-Dirac smearing, width (Ry)=  0.0200
                       cart. coord. in units 2pi/alat
        k(    1) = (   0.0000000   0.0000000   0.0000000), wk =   0.0034722
        k(    2) = (   0.0000000   0.0481125   0.0000000), wk =   0.0208333
        k(    3) = (   0.0000000   0.0962250   0.0000000), wk =   0.0208333
        k(    4) = (   0.0000000   0.1443376   0.0000000), wk =   0.0208333
        k(    5) = (   0.0000000   0.1924501   0.0000000), wk =   0.0208333
        k(    6) = (   0.0000000   0.2405626   0.0000000), wk =   0.0208333
        k(    7) = (   0.0000000   0.2886751   0.0000000), wk =   0.0208333
        k(    8) = (   0.0000000   0.3367877   0.0000000), wk =   0.0208333
        k(    9) = (   0.0000000   0.3849002   0.0000000), wk =   0.0208333
        k(   10) = (   0.0000000   0.4330127   0.0000000), wk =   0.0208333
        k(   11) = (   0.0000000   0.4811252   0.0000000), wk =   0.0208333
        k(   12) = (   0.0000000   0.5292377   0.0000000), wk =   0.0208333
        k(   13) = (   0.0000000  -0.5773503   0.0000000), wk =   0.0104167
        k(   14) = (   0.0416667   0.0721688   0.0000000), wk =   0.0208333
        k(   15) = (   0.0416667   0.1202813   0.0000000), wk =   0.0416667
        k(   16) = (   0.0416667   0.1683938   0.0000000), wk =   0.0416667
        k(   17) = (   0.0416667   0.2165064   0.0000000), wk =   0.0416667
        k(   18) = (   0.0416667   0.2646189   0.0000000), wk =   0.0416667
        k(   19) = (   0.0416667   0.3127314   0.0000000), wk =   0.0416667
        k(   20) = (   0.0416667   0.3608439   0.0000000), wk =   0.0416667
        k(   21) = (   0.0416667   0.4089564   0.0000000), wk =   0.0416667
        k(   22) = (   0.0416667   0.4570690   0.0000000), wk =   0.0416667
        k(   23) = (   0.0416667   0.5051815   0.0000000), wk =   0.0416667
        k(   24) = (   0.0416667   0.5532940   0.0000000), wk =   0.0416667
        k(   25) = (   0.0833333   0.1443376   0.0000000), wk =   0.0208333
        k(   26) = (   0.0833333   0.1924501   0.0000000), wk =   0.0416667
        k(   27) = (   0.0833333   0.2405626   0.0000000), wk =   0.0416667
        k(   28) = (   0.0833333   0.2886751   0.0000000), wk =   0.0416667
        k(   29) = (   0.0833333   0.3367877   0.0000000), wk =   0.0416667
        k(   30) = (   0.0833333   0.3849002   0.0000000), wk =   0.0416667
        k(   31) = (   0.0833333   0.4330127   0.0000000), wk =   0.0416667
        k(   32) = (   0.0833333   0.4811252   0.0000000), wk =   0.0416667
        k(   33) = (   0.0833333   0.5292377   0.0000000), wk =   0.0416667
        k(   34) = (   0.0833333   0.5773503   0.0000000), wk =   0.0208333
        k(   35) = (   0.1250000   0.2165064   0.0000000), wk =   0.0208333
        k(   36) = (   0.1250000   0.2646189   0.0000000), wk =   0.0416667
        k(   37) = (   0.1250000   0.3127314   0.0000000), wk =   0.0416667
        k(   38) = (   0.1250000   0.3608439   0.0000000), wk =   0.0416667
        k(   39) = (   0.1250000   0.4089564   0.0000000), wk =   0.0416667
        k(   40) = (   0.1250000   0.4570690   0.0000000), wk =   0.0416667
        k(   41) = (   0.1250000   0.5051815   0.0000000), wk =   0.0416667
        k(   42) = (   0.1250000   0.5532940   0.0000000), wk =   0.0416667
        k(   43) = (   0.1666667   0.2886751   0.0000000), wk =   0.0208333
        k(   44) = (   0.1666667   0.3367877   0.0000000), wk =   0.0416667
        k(   45) = (   0.1666667   0.3849002   0.0000000), wk =   0.0416667
        k(   46) = (   0.1666667   0.4330127   0.0000000), wk =   0.0416667
        k(   47) = (   0.1666667   0.4811252   0.0000000), wk =   0.0416667
        k(   48) = (   0.1666667   0.5292377   0.0000000), wk =   0.0416667
        k(   49) = (   0.1666667   0.5773503   0.0000000), wk =   0.0208333
        k(   50) = (   0.2083333   0.3608439   0.0000000), wk =   0.0208333
        k(   51) = (   0.2083333   0.4089564   0.0000000), wk =   0.0416667
        k(   52) = (   0.2083333   0.4570690   0.0000000), wk =   0.0416667
        k(   53) = (   0.2083333   0.5051815   0.0000000), wk =   0.0416667
        k(   54) = (   0.2083333   0.5532940   0.0000000), wk =   0.0416667
        k(   55) = (   0.2500000   0.4330127   0.0000000), wk =   0.0208333
        k(   56) = (   0.2500000   0.4811252   0.0000000), wk =   0.0416667
        k(   57) = (   0.2500000   0.5292377   0.0000000), wk =   0.0416667
        k(   58) = (   0.2500000   0.5773503   0.0000000), wk =   0.0208333
        k(   59) = (   0.2916667   0.5051815   0.0000000), wk =   0.0208333
        k(   60) = (   0.2916667   0.5532940   0.0000000), wk =   0.0416667
        k(   61) = (   0.3333333   0.5773503   0.0000000), wk =   0.0069444

     Dense  grid:   455489 G-vectors     FFT dimensions: (  64,  64, 270)

     Smooth grid:   160939 G-vectors     FFT dimensions: (  45,  45, 192)

     Estimated max dynamical RAM per process >     322.30 MB

     Estimated total dynamical RAM >       1.89 GB

     Initial potential from superposition of free atoms

     starting charge   25.99991, renormalised to   28.00000

     negative rho (up, down):  5.949E-04 0.000E+00
     Starting wfcs are   18 randomized atomic wfcs

     total cpu time spent up to now is        6.9 secs

     Self-consistent Calculation

     iteration #  1     ecut=    60.00 Ry     beta= 0.70
     Davidson diagonalization with overlap
     ethr =  1.00E-02,  avg # of iterations =  8.8

     total cpu time spent up to now is       30.4 secs

     total energy              =    -325.43471100 Ry
     estimated scf accuracy    <       2.50741281 Ry

     iteration #  2     ecut=    60.00 Ry     beta= 0.70
     Davidson diagonalization with overlap
     ethr =  8.96E-03,  avg # of iterations =  2.1

     total cpu time spent up to now is       50.4 secs

     total energy              =    -326.35873296 Ry
     estimated scf accuracy    <       0.41564666 Ry

     iteration #  3     ecut=    60.00 Ry     beta= 0.70
     Davidson diagonalization with overlap
     ethr =  1.48E-03,  avg # of iterations =  2.1

     negative rho (up, down):  1.239E-06 0.000E+00

     total cpu time spent up to now is       68.8 secs

     total energy              =    -326.42186603 Ry
     estimated scf accuracy    <       0.00711992 Ry

     iteration #  4     ecut=    60.00 Ry     beta= 0.70
     Davidson diagonalization with overlap
     ethr =  2.54E-05,  avg # of iterations =  8.3

     negative rho (up, down):  6.365E-05 0.000E+00

     total cpu time spent up to now is       91.8 secs

     total energy              =    -326.42402208 Ry
     estimated scf accuracy    <       0.00023585 Ry

     iteration #  5     ecut=    60.00 Ry     beta= 0.70
     Davidson diagonalization with overlap
     ethr =  8.42E-07,  avg # of iterations =  6.4

     negative rho (up, down):  7.590E-05 0.000E+00

     total cpu time spent up to now is      108.3 secs

     total energy              =    -326.42402988 Ry
     estimated scf accuracy    <       0.00002784 Ry

     iteration #  6     ecut=    60.00 Ry     beta= 0.70
     Davidson diagonalization with overlap
     ethr =  9.94E-08,  avg # of iterations =  2.8

     negative rho (up, down):  8.156E-05 0.000E+00

     total cpu time spent up to now is      123.9 secs

     total energy              =    -326.42403453 Ry
     estimated scf accuracy    <       0.00003037 Ry

     iteration #  7     ecut=    60.00 Ry     beta= 0.70
     Davidson diagonalization with overlap
     ethr =  9.94E-08,  avg # of iterations =  2.0

     negative rho (up, down):  8.499E-05 0.000E+00

     total cpu time spent up to now is      137.7 secs

     End of self-consistent calculation

          k = 0.0000 0.0000 0.0000 ( 20025 PWs)   bands (ev):

   -23.5701 -23.5701 -23.4889 -23.4889 -23.4677 -23.3973 -23.2637 -23.2637
   -23.2104 -23.2104 -11.4170  -5.2996  -2.4499  -2.4499  -1.9833  -0.0795
     1.0485   1.0485

          k = 0.0000 0.0481 0.0000 ( 20035 PWs)   bands (ev):

   -23.5710 -23.5710 -23.4897 -23.4877 -23.4663 -23.3961 -23.2662 -23.2660
   -23.2090 -23.2081 -11.4023  -5.3232  -2.7363  -2.4824  -1.6781  -0.0786
     1.0190   1.1043

          k = 0.0000 0.0962 0.0000 ( 20005 PWs)   bands (ev):

   -23.5732 -23.5732 -23.4919 -23.4842 -23.4626 -23.3928 -23.2725 -23.2719
   -23.2057 -23.2024 -11.3582  -5.4025  -3.1204  -2.5730  -1.2431  -0.0792
     0.9650   1.2639

          k = 0.0000 0.1443 0.0000 ( 20065 PWs)   bands (ev):

   -23.5764 -23.5762 -23.4954 -23.4790 -23.4574 -23.3872 -23.2809 -23.2800
   -23.2019 -23.1950 -11.2851  -5.5581  -3.4272  -2.7046  -0.8794  -0.0902
     0.9713   1.5071

          k = 0.0000 0.1925 0.0000 ( 20113 PWs)   bands (ev):

   -23.5799 -23.5792 -23.5000 -23.4728 -23.4521 -23.3796 -23.2901 -23.2888
   -23.1986 -23.1871 -11.1834  -5.8056  -3.6188  -2.8587  -0.6781  -0.1150
     1.1195   2.1765

          k = 0.0000 0.2406 0.0000 ( 20071 PWs)   bands (ev):

   -23.5835 -23.5815 -23.5054 -23.4662 -23.4475 -23.3702 -23.2993 -23.2972
   -23.1965 -23.1794 -11.0540  -6.1348  -3.6962  -3.0191  -0.6633  -0.1474
     1.3849   2.2829

          k = 0.0000 0.2887 0.0000 ( 20087 PWs)   bands (ev):

   -23.5868 -23.5828 -23.5115 -23.4596 -23.4443 -23.3595 -23.3081 -23.3045
   -23.1957 -23.1722 -10.8983  -6.5156  -3.6845  -3.1741  -0.7655  -0.1997
     1.6307   2.4606

          k = 0.0000 0.3368 0.0000 ( 20109 PWs)   bands (ev):

   -23.5896 -23.5830 -23.5180 -23.4536 -23.4427 -23.3486 -23.3161 -23.3098
   -23.1964 -23.1659 -10.7188  -6.9171  -3.6120  -3.3152  -0.9163  -0.2844
     1.7917   2.6665

          k = 0.0000 0.3849 0.0000 ( 20145 PWs)   bands (ev):

   -23.5919 -23.5818 -23.5248 -23.4484 -23.4424 -23.3393 -23.3229 -23.3120
   -23.1984 -23.1604 -10.5197  -7.3150  -3.5013  -3.4366  -1.0834  -0.3928
     1.9259   2.8817

          k = 0.0000 0.4330 0.0000 ( 20161 PWs)   bands (ev):

   -23.5937 -23.5795 -23.5315 -23.4441 -23.4429 -23.3338 -23.3284 -23.3096
   -23.2013 -23.1561 -10.3091  -7.6891  -3.5345  -3.3722  -1.2512  -0.5040
     2.0750   3.0991

          k = 0.0000 0.4811 0.0000 ( 20157 PWs)   bands (ev):

   -23.5949 -23.5765 -23.5378 -23.4437 -23.4410 -23.3324 -23.3322 -23.3039
   -23.2045 -23.1529 -10.1039  -8.0152  -3.6061  -3.2459  -1.4037  -0.5967
     2.2395   3.2756

          k = 0.0000 0.5292 0.0000 ( 20142 PWs)   bands (ev):

   -23.5956 -23.5736 -23.5427 -23.4444 -23.4392 -23.3348 -23.3321 -23.2989
   -23.2071 -23.1510  -9.9385  -8.2546  -3.6497  -3.1494  -1.5161  -0.6568
     2.3885   3.3305

          k = 0.0000-0.5774 0.0000 ( 20152 PWs)   bands (ev):

   -23.5958 -23.5723 -23.5447 -23.4446 -23.4386 -23.3357 -23.3321 -23.2969
   -23.2081 -23.1504  -9.8710  -8.3470  -3.6643  -3.1124  -1.5586  -0.6774
     2.4552   3.3595

          k = 0.0417 0.0722 0.0000 ( 20017 PWs)   bands (ev):

   -23.5725 -23.5725 -23.4910 -23.4854 -23.4637 -23.3939 -23.2706 -23.2700
   -23.2069 -23.2040 -11.3729  -5.3747  -3.0205  -2.5482  -1.3531  -0.0784
     0.9676   1.2207

          k = 0.0417 0.1203 0.0000 ( 20039 PWs)   bands (ev):

   -23.5754 -23.5749 -23.4938 -23.4814 -23.4591 -23.3895 -23.2780 -23.2768
   -23.2037 -23.1973 -11.3143  -5.4925  -3.3254  -2.6693  -0.9720  -0.0851
     0.9156   1.4427

          k = 0.0417 0.1684 0.0000 ( 20081 PWs)   bands (ev):

   -23.5791 -23.5775 -23.4978 -23.4760 -23.4534 -23.3830 -23.2866 -23.2851
   -23.2006 -23.1895 -11.2268  -5.6957  -3.5502  -2.8232  -0.6764  -0.1077
     0.9564   1.7382

          k = 0.0417 0.2165 0.0000 ( 20075 PWs)   bands (ev):

   -23.5829 -23.5799 -23.5028 -23.4700 -23.4479 -23.3747 -23.2956 -23.2936
   -23.1984 -23.1815 -11.1112  -5.9865  -3.6683  -2.9901  -0.5614  -0.1363
     1.1500   2.0585

          k = 0.0417 0.2646 0.0000 ( 20107 PWs)   bands (ev):

   -23.5865 -23.5815 -23.5086 -23.4638 -23.4434 -23.3649 -23.3044 -23.3015
   -23.1974 -23.1739 -10.9685  -6.3426  -3.6916  -3.1545  -0.6213  -0.1633
     1.4350   2.2699

          k = 0.0417 0.3127 0.0000 ( 20105 PWs)   bands (ev):

   -23.5898 -23.5820 -23.5150 -23.4578 -23.4404 -23.3544 -23.3125 -23.3078
   -23.1977 -23.1669 -10.8006  -6.7333  -3.6482  -3.3031  -0.7676  -0.2143
     1.6815   2.4760

          k = 0.0417 0.3608 0.0000 ( 20127 PWs)   bands (ev):

   -23.5925 -23.5814 -23.5216 -23.4526 -23.4387 -23.3445 -23.3197 -23.3115
   -23.1995 -23.1608 -10.6106  -7.1320  -3.5812  -3.4092  -0.9454  -0.2947
     1.8529   2.7076

          k = 0.0417 0.4090 0.0000 ( 20135 PWs)   bands (ev):

   -23.5946 -23.5796 -23.5285 -23.4483 -23.4382 -23.3374 -23.3256 -23.3112
   -23.2024 -23.1557 -10.4043  -7.5177  -3.6041  -3.3740  -1.1323  -0.3891
     2.0043   2.8912

          k = 0.0417 0.4571 0.0000 ( 20146 PWs)   bands (ev):

   -23.5961 -23.5769 -23.5350 -23.4452 -23.4382 -23.3347 -23.3299 -23.3066
   -23.2058 -23.1518 -10.1932  -7.8695  -3.6767  -3.2539  -1.3122  -0.4772
     2.1637   3.0144

          k = 0.0417 0.5052 0.0000 ( 20148 PWs)   bands (ev):

   -23.5971 -23.5738 -23.5407 -23.4434 -23.4383 -23.3350 -23.3320 -23.3009
   -23.2091 -23.1492 -10.0014  -8.1578  -3.7320  -3.1378  -1.4628  -0.5433
     2.3183   3.1005

          k = 0.0417 0.5533 0.0000 ( 20150 PWs)   bands (ev):

   -23.5976 -23.5715 -23.5443 -23.4427 -23.4382 -23.3360 -23.3326 -23.2972
   -23.2111 -23.1479  -9.8763  -8.3317  -3.7607  -3.0652  -1.5524  -0.5782
     2.4227   3.1990

          k = 0.0833 0.1443 0.0000 ( 20061 PWs)   bands (ev):

   -23.5788 -23.5769 -23.4968 -23.4776 -23.4536 -23.3842 -23.2855 -23.2836
   -23.2018 -23.1900 -11.2413  -5.6592  -3.5155  -2.8273  -0.6489  -0.1081
     0.8595   1.7402

          k = 0.0833 0.1925 0.0000 ( 20087 PWs)   bands (ev):

   -23.5828 -23.5788 -23.5012 -23.4730 -23.4472 -23.3774 -23.2938 -23.2914
   -23.2004 -23.1818 -11.1399  -5.9091  -3.6345  -3.0143  -0.3924  -0.1520
     0.8976   2.0866

          k = 0.0833 0.2406 0.0000 ( 20121 PWs)   bands (ev):

   -23.5870 -23.5801 -23.5066 -23.4676 -23.4410 -23.3691 -23.3020 -23.2993
   -23.2001 -23.1736 -11.0109  -6.2298  -3.6732  -3.2036  -0.3802  -0.1283
     1.0963   2.2307

          k = 0.0833 0.2887 0.0000 ( 20106 PWs)   bands (ev):

   -23.5909 -23.5805 -23.5127 -23.4622 -23.4359 -23.3601 -23.3099 -23.3060
   -23.2010 -23.1658 -10.8555  -6.5960  -3.6524  -3.3721  -0.5396  -0.0944
     1.4036   2.3107

          k = 0.0833 0.3368 0.0000 ( 20114 PWs)   bands (ev):

   -23.5943 -23.5799 -23.5192 -23.4569 -23.4324 -23.3511 -23.3170 -23.3105
   -23.2032 -23.1588 -10.6762  -6.9821  -3.6462  -3.4544  -0.7434  -0.1117
     1.7010   2.4551

          k = 0.0833 0.3849 0.0000 ( 20126 PWs)   bands (ev):

   -23.5971 -23.5783 -23.5260 -23.4520 -23.4307 -23.3438 -23.3231 -23.3116
   -23.2066 -23.1527 -10.4771  -7.3668  -3.7394  -3.3767  -0.9631  -0.1597
     1.9268   2.6138

          k = 0.0833 0.4330 0.0000 ( 20149 PWs)   bands (ev):

   -23.5993 -23.5759 -23.5326 -23.4476 -23.4306 -23.3397 -23.3279 -23.3085
   -23.2108 -23.1478 -10.2660  -7.7312  -3.8407  -3.2431  -1.1821  -0.2176
     2.1052   2.7148

          k = 0.0833 0.4811 0.0000 ( 20151 PWs)   bands (ev):

   -23.6007 -23.5728 -23.5386 -23.4437 -23.4319 -23.3382 -23.3314 -23.3029
   -23.2151 -23.1443 -10.0590  -8.0518  -3.9180  -3.1034  -1.3802  -0.2696
     2.2505   2.8036

          k = 0.0833 0.5292 0.0000 ( 20157 PWs)   bands (ev):

   -23.6016 -23.5700 -23.5433 -23.4402 -23.4341 -23.3378 -23.3335 -23.2980
   -23.2185 -23.1421  -9.8907  -8.2898  -3.9656  -2.9916  -1.5271  -0.3047
     2.3413   2.9395

          k = 0.0833 0.5774 0.0000 ( 20154 PWs)   bands (ev):

   -23.6019 -23.5687 -23.5453 -23.4372 -23.4367 -23.3377 -23.3343 -23.2961
   -23.2198 -23.1414  -9.8213  -8.3826  -3.9816  -2.9473  -1.5833  -0.3170
     2.3693   3.0599

          k = 0.1250 0.2165 0.0000 ( 20099 PWs)   bands (ev):

   -23.5872 -23.5795 -23.5057 -23.4692 -23.4398 -23.3708 -23.3012 -23.2984
   -23.2013 -23.1733 -11.0250  -6.1905  -3.6587  -3.2363  -0.2515  -0.0932
     0.9013   2.2442

          k = 0.1250 0.2646 0.0000 ( 20119 PWs)   bands (ev):

   -23.5916 -23.5796 -23.5114 -23.4647 -23.4326 -23.3637 -23.3085 -23.3049
   -23.2033 -23.1648 -10.8831  -6.5217  -3.6299  -3.4519  -0.3974   0.1028
     1.0621   2.2916

          k = 0.1250 0.3127 0.0000 ( 20122 PWs)   bands (ev):

   -23.5958 -23.5788 -23.5176 -23.4598 -23.4266 -23.3568 -23.3152 -23.3097
   -23.2065 -23.1568 -10.7159  -6.8818  -3.6875  -3.5138  -0.5931   0.1760
     1.3748   2.3546

          k = 0.1250 0.3608 0.0000 ( 20112 PWs)   bands (ev):

   -23.5995 -23.5772 -23.5242 -23.4547 -23.4226 -23.3509 -23.3212 -23.3114
   -23.2109 -23.1496 -10.5262  -7.2516  -3.8569  -3.3990  -0.8186   0.1798
     1.7273   2.4159

          k = 0.1250 0.4090 0.0000 ( 20146 PWs)   bands (ev):

   -23.6025 -23.5748 -23.5307 -23.4496 -23.4210 -23.3469 -23.3263 -23.3094
   -23.2161 -23.1436 -10.3195  -7.6141  -4.0012  -3.2512  -1.0557   0.1555
     2.0249   2.4387

          k = 0.1250 0.4571 0.0000 ( 20145 PWs)   bands (ev):

   -23.6047 -23.5718 -23.5369 -23.4447 -23.4217 -23.3443 -23.3306 -23.3046
   -23.2218 -23.1389 -10.1063  -7.9503  -4.1116  -3.0916  -1.2852   0.1237
     2.2033   2.5027

          k = 0.1250 0.5052 0.0000 ( 20141 PWs)   bands (ev):

   -23.6062 -23.5686 -23.5421 -23.4400 -23.4242 -23.3423 -23.3341 -23.2991
   -23.2269 -23.1357  -9.9095  -8.2318  -4.1859  -2.9443  -1.4808   0.0963
     2.2358   2.6974

          k = 0.1250 0.5533 0.0000 ( 20145 PWs)   bands (ev):

   -23.6070 -23.5663 -23.5455 -23.4362 -23.4270 -23.3405 -23.3366 -23.2955
   -23.2301 -23.1340  -9.7783  -8.4061  -4.2232  -2.8487  -1.6011   0.0809
     2.2297   2.9157

          k = 0.1667 0.2887 0.0000 ( 20113 PWs)   bands (ev):

   -23.5963 -23.5785 -23.5171 -23.4608 -23.4242 -23.3591 -23.3145 -23.3094
   -23.2077 -23.1560 -10.7291  -6.8462  -3.7020  -3.5389  -0.5448   0.3913
     1.1308   2.3619

          k = 0.1667 0.3368 0.0000 ( 20110 PWs)   bands (ev):

   -23.6008 -23.5766 -23.5233 -23.4561 -23.4169 -23.3560 -23.3202 -23.3113
   -23.2134 -23.1478 -10.5510  -7.1884  -3.9251  -3.4157  -0.7432   0.5497
     1.3864   2.4238

          k = 0.1667 0.3849 0.0000 ( 20115 PWs)   bands (ev):

   -23.6047 -23.5741 -23.5295 -23.4509 -23.4120 -23.3542 -23.3253 -23.3098
   -23.2199 -23.1406 -10.3523  -7.5343  -4.1149  -3.2638  -0.9695   0.5911
     1.7645   2.3467

          k = 0.1667 0.4330 0.0000 ( 20139 PWs)   bands (ev):

   -23.6079 -23.5710 -23.5356 -23.4455 -23.4103 -23.3524 -23.3300 -23.3056
   -23.2271 -23.1347 -10.1397  -7.8691  -4.2652  -3.0942  -1.2048   0.5903
     2.1402   2.2346

          k = 0.1667 0.4811 0.0000 ( 20145 PWs)   bands (ev):

   -23.6102 -23.5677 -23.5410 -23.4401 -23.4116 -23.3497 -23.3343 -23.3002
   -23.2341 -23.1303  -9.9274  -8.1727  -4.3734  -2.9230  -1.4270   0.5788
     2.1273   2.4886

          k = 0.1667 0.5292 0.0000 ( 20147 PWs)   bands (ev):

   -23.6116 -23.5648 -23.5452 -23.4355 -23.4144 -23.3463 -23.3383 -23.2954
   -23.2396 -23.1276  -9.7490  -8.4075  -4.4386  -2.7808  -1.6015   0.5683
     2.0655   2.7844

          k = 0.1667 0.5774 0.0000 ( 20135 PWs)   bands (ev):

   -23.6121 -23.5634 -23.5470 -23.4333 -23.4161 -23.3434 -23.3413 -23.2934
   -23.2418 -23.1266  -9.6725  -8.5030  -4.4604  -2.7211  -1.6722   0.5643
     2.0444   2.9508

          k = 0.2083 0.3608 0.0000 ( 20119 PWs)   bands (ev):

   -23.6055 -23.5738 -23.5291 -23.4514 -23.4080 -23.3576 -23.3250 -23.3099
   -23.2213 -23.1395 -10.3633  -7.5058  -4.1559  -3.2692  -0.9394   0.8823
     1.5077   2.3890

          k = 0.2083 0.4090 0.0000 ( 20133 PWs)   bands (ev):

   -23.6096 -23.5707 -23.5349 -23.4460 -23.4014 -23.3594 -23.3297 -23.3060
   -23.2299 -23.1324 -10.1569  -7.8236  -4.3497  -3.0987  -1.1592   1.0397
     1.8256   2.2169

          k = 0.2083 0.4571 0.0000 ( 20137 PWs)   bands (ev):

   -23.6128 -23.5673 -23.5402 -23.4403 -23.3989 -23.3589 -23.3344 -23.3009
   -23.2387 -23.1268  -9.9401  -8.1285  -4.4984  -2.9160  -1.3845   1.0858
     2.0417   2.2567

          k = 0.2083 0.5052 0.0000 ( 20163 PWs)   bands (ev):

   -23.6151 -23.5640 -23.5448 -23.4350 -23.4003 -23.3552 -23.3392 -23.2955
   -23.2466 -23.1229  -9.7322  -8.3975  -4.5986  -2.7408  -1.5909   1.1008
     1.9357   2.6323

          k = 0.2083 0.5533 0.0000 ( 20157 PWs)   bands (ev):

   -23.6163 -23.5615 -23.5479 -23.4314 -23.4026 -23.3499 -23.3443 -23.2917
   -23.2517 -23.1209  -9.5838  -8.5771  -4.6490  -2.6176  -1.7304   1.1062
     1.8768   2.9240

          k = 0.2500 0.4330 0.0000 ( 20149 PWs)   bands (ev):

   -23.6138 -23.5672 -23.5399 -23.4403 -23.3921 -23.3645 -23.3344 -23.3011
   -23.2403 -23.1255  -9.9447  -8.1122  -4.5422  -2.9147  -1.3684   1.4058
     1.9929   2.0591

          k = 0.2500 0.4811 0.0000 ( 20153 PWs)   bands (ev):

   -23.6169 -23.5637 -23.5445 -23.4347 -23.3873 -23.3654 -23.3396 -23.2957
   -23.2502 -23.1204  -9.7248  -8.3885  -4.6838  -2.7230  -1.5811   1.5679
     1.9113   2.3637

          k = 0.2500 0.5292 0.0000 ( 20133 PWs)   bands (ev):

   -23.6189 -23.5606 -23.5483 -23.4302 -23.3883 -23.3600 -23.3457 -23.2905
   -23.2584 -23.1172  -9.5235  -8.6244  -4.7700  -2.5488  -1.7690   1.6351
     1.7970   2.7717

          k = 0.2500 0.5774 0.0000 ( 20123 PWs)   bands (ev):

   -23.6196 -23.5590 -23.5500 -23.4284 -23.3895 -23.3531 -23.3523 -23.2879
   -23.2620 -23.1161  -9.4251  -8.7345  -4.7989  -2.4649  -1.8576   1.6765
     1.7339   2.9888

          k = 0.2917 0.5052 0.0000 ( 20137 PWs)   bands (ev):

   -23.6199 -23.5603 -23.5483 -23.4298 -23.3772 -23.3696 -23.3461 -23.2900
   -23.2608 -23.1160  -9.5020  -8.6408  -4.8116  -2.5244  -1.7826   1.7000
     2.0817   2.5259

          k = 0.2917 0.5533 0.0000 ( 20132 PWs)   bands (ev):

   -23.6214 -23.5574 -23.5514 -23.4268 -23.3761 -23.3634 -23.3540 -23.2846
   -23.2689 -23.1137  -9.3050  -8.8525  -4.8767  -2.3513  -1.9574   1.6581
     2.2172   2.8203

          k = 0.3333 0.5774 0.0000 ( 20133 PWs)   bands (ev):

   -23.6222 -23.5544 -23.5544 -23.4255 -23.3655 -23.3651 -23.3628 -23.2776
   -23.2776 -23.1125  -9.0804  -9.0802  -4.9130  -2.1528  -2.1526   1.6251
     2.6486   2.6488

     the Fermi energy is    -2.1332 ev

!    total energy              =    -326.42403911 Ry
     estimated scf accuracy    <       0.00000043 Ry
     smearing contrib. (-TS)   =      -0.01594741 Ry
     internal energy E=F+TS    =    -326.40809170 Ry

     The total energy is F=E-TS. E is the sum of the following terms:
     one-electron contribution =    -856.36604842 Ry
     hartree contribution      =     435.84247562 Ry
     xc contribution           =     -95.00598422 Ry
     ewald contribution        =     189.12146532 Ry

     convergence has been achieved in   7 iterations

     Writing output data file ../tmp/stanene.save/

     init_run     :      6.25s CPU      6.69s WALL (       1 calls)
     electrons    :    125.64s CPU    130.86s WALL (       1 calls)

     Called by init_run:
     wfcinit      :      4.07s CPU      4.29s WALL (       1 calls)
     potinit      :      0.66s CPU      0.71s WALL (       1 calls)
     hinit0       :      0.59s CPU      0.59s WALL (       1 calls)

     Called by electrons:
     c_bands      :    107.03s CPU    110.32s WALL (       7 calls)
     sum_band     :     14.43s CPU     15.72s WALL (       7 calls)
     v_of_rho     :      1.89s CPU      1.98s WALL (       8 calls)
     newd         :      2.89s CPU      3.60s WALL (       8 calls)
     mix_rho      :      0.24s CPU      0.26s WALL (       7 calls)

     Called by c_bands:
     init_us_2    :      0.83s CPU      0.84s WALL (     915 calls)
     cegterg      :    103.56s CPU    106.85s WALL (     427 calls)

     Called by *egterg:
     cdiaghg      :      1.75s CPU      1.76s WALL (    2409 calls)
     h_psi        :     64.37s CPU     67.65s WALL (    2470 calls)
     s_psi        :      4.71s CPU      4.74s WALL (    2470 calls)
     g_psi        :      0.42s CPU      0.42s WALL (    1982 calls)

     Called by h_psi:
     h_psi:calbec :      8.29s CPU      8.57s WALL (    2470 calls)
     vloc_psi     :     51.05s CPU     53.98s WALL (    2470 calls)
     add_vuspsi   :      4.79s CPU      4.86s WALL (    2470 calls)

     General routines
     calbec       :     10.73s CPU     11.09s WALL (    2897 calls)
     fft          :      1.89s CPU      1.98s WALL (     102 calls)
     ffts         :      0.06s CPU      0.06s WALL (      15 calls)
     fftw         :     54.41s CPU     57.26s WALL (   54476 calls)
     interpolate  :      0.19s CPU      0.19s WALL (       8 calls)

     Parallel routines
     fft_scatt_xy :      4.90s CPU      5.28s WALL (   54593 calls)
     fft_scatt_yz :     30.36s CPU     31.55s WALL (   54593 calls)

     PWSCF        :   2m12.24s CPU   2m18.12s WALL


   This run was terminated on:  22:35:45  23Jan2024            

=------------------------------------------------------------------------------=
   JOB DONE.
=------------------------------------------------------------------------------=
