
     Program PWSCF v.6.7MaX starts on 23Jan2024 at 22:40:21 

     This program is part of the open-source Quantum ESPRESSO suite
     for quantum simulation of materials; please cite
         "P. Giannozzi et al., J. Phys.:Condens. Matter 21 395502 (2009);
         "P. Giannozzi et al., J. Phys.:Condens. Matter 29 465901 (2017);
          URL http://www.quantum-espresso.org", 
     in publications or presentations arising from this work. More details at
     http://www.quantum-espresso.org/quote

     Parallel version (MPI), running on     6 processors

     MPI processes distributed on     1 nodes
     R & G space division:  proc/nbgrp/npool/nimage =       6
     Waiting for input...
     Reading input from standard input

     Current dimensions of program PWSCF are:
     Max number of different atomic species (ntypx) = 10
     Max number of k-points (npk) =  40000
     Max angular momentum in pseudopotentials (lmaxx) =  3

     Subspace diagonalization in iterative solution of the eigenvalue problem:
     one sub-group per band group will be used
     scalapack distributed-memory algorithm (size of sub-group:  2*  2 procs)


     Parallelization info
     --------------------
     sticks:   dense  smooth     PW     G-vecs:    dense   smooth      PW
     Min         431     214     61                75909    26818    4015
     Max         432     215     62                75924    26841    4025
     Sum        2587    1285    367               455489   160939   24117



     bravais-lattice index     =            4
     lattice parameter (alat)  =       8.8506  a.u.
     unit-cell volume          =    2563.9136 (a.u.)^3
     number of atoms/cell      =            2
     number of atomic types    =            1
     number of electrons       =        28.00
     number of Kohn-Sham states=           18
     kinetic-energy cutoff     =      60.0000  Ry
     charge density cutoff     =     480.0000  Ry
     scf convergence threshold =      1.0E-06
     mixing beta               =       0.7000
     number of iterations used =            8  plain     mixing
     Exchange-correlation= SLA  PW   PBE  PBE
                           (   1   4   3   4   0   0   0)

     celldm(1)=   8.850584  celldm(2)=   0.000000  celldm(3)=   4.270286
     celldm(4)=   0.000000  celldm(5)=   0.000000  celldm(6)=   0.000000

     crystal axes: (cart. coord. in units of alat)
               a(1) = (   1.000000   0.000000   0.000000 )  
               a(2) = (  -0.500000   0.866025   0.000000 )  
               a(3) = (   0.000000   0.000000   4.270286 )  

     reciprocal axes: (cart. coord. in units 2 pi/alat)
               b(1) = (  1.000000  0.577350 -0.000000 )  
               b(2) = (  0.000000  1.154701  0.000000 )  
               b(3) = (  0.000000 -0.000000  0.234176 )  


     PseudoPot. # 1 for Sn read from file:
     ../pseudo/Sn_pbe_v1.uspp.F.UPF
     MD5 check sum: 4cf58ce39ec5d5d420df3dd08604eb00
     Pseudo is Ultrasoft + core correction, Zval = 14.0
     Generated by new atomic code, or converted to UPF format
     Using radial grid of  891 points,  6 beta functions with: 
                l(1) =   0
                l(2) =   0
                l(3) =   1
                l(4) =   1
                l(5) =   2
                l(6) =   2
     Q(r) pseudized with  6 coefficients,  rinner =    1.200   1.200   1.200
                                                       1.200   1.200

     atomic species   valence    mass     pseudopotential
        Sn            14.00   118.71000     Sn( 1.00)

      6 Sym. Ops. (no inversion) found



   Cartesian axes

     site n.     atom                  positions (alat units)
         1           Sn  tau(   1) = (   0.0000000   0.5773503   2.1351428  )
         2           Sn  tau(   2) = (   0.5000000   0.2886751   1.9552503  )

     number of k points=    61  Fermi-Dirac smearing, width (Ry)=  0.0350
                       cart. coord. in units 2pi/alat
        k(    1) = (   0.0000000   0.0000000   0.0000000), wk =   0.0034722
        k(    2) = (   0.0000000   0.0481125   0.0000000), wk =   0.0208333
        k(    3) = (   0.0000000   0.0962250   0.0000000), wk =   0.0208333
        k(    4) = (   0.0000000   0.1443376   0.0000000), wk =   0.0208333
        k(    5) = (   0.0000000   0.1924501   0.0000000), wk =   0.0208333
        k(    6) = (   0.0000000   0.2405626   0.0000000), wk =   0.0208333
        k(    7) = (   0.0000000   0.2886751   0.0000000), wk =   0.0208333
        k(    8) = (   0.0000000   0.3367877   0.0000000), wk =   0.0208333
        k(    9) = (   0.0000000   0.3849002   0.0000000), wk =   0.0208333
        k(   10) = (   0.0000000   0.4330127   0.0000000), wk =   0.0208333
        k(   11) = (   0.0000000   0.4811252   0.0000000), wk =   0.0208333
        k(   12) = (   0.0000000   0.5292377   0.0000000), wk =   0.0208333
        k(   13) = (   0.0000000  -0.5773503   0.0000000), wk =   0.0104167
        k(   14) = (   0.0416667   0.0721688   0.0000000), wk =   0.0208333
        k(   15) = (   0.0416667   0.1202813   0.0000000), wk =   0.0416667
        k(   16) = (   0.0416667   0.1683938   0.0000000), wk =   0.0416667
        k(   17) = (   0.0416667   0.2165064   0.0000000), wk =   0.0416667
        k(   18) = (   0.0416667   0.2646189   0.0000000), wk =   0.0416667
        k(   19) = (   0.0416667   0.3127314   0.0000000), wk =   0.0416667
        k(   20) = (   0.0416667   0.3608439   0.0000000), wk =   0.0416667
        k(   21) = (   0.0416667   0.4089564   0.0000000), wk =   0.0416667
        k(   22) = (   0.0416667   0.4570690   0.0000000), wk =   0.0416667
        k(   23) = (   0.0416667   0.5051815   0.0000000), wk =   0.0416667
        k(   24) = (   0.0416667   0.5532940   0.0000000), wk =   0.0416667
        k(   25) = (   0.0833333   0.1443376   0.0000000), wk =   0.0208333
        k(   26) = (   0.0833333   0.1924501   0.0000000), wk =   0.0416667
        k(   27) = (   0.0833333   0.2405626   0.0000000), wk =   0.0416667
        k(   28) = (   0.0833333   0.2886751   0.0000000), wk =   0.0416667
        k(   29) = (   0.0833333   0.3367877   0.0000000), wk =   0.0416667
        k(   30) = (   0.0833333   0.3849002   0.0000000), wk =   0.0416667
        k(   31) = (   0.0833333   0.4330127   0.0000000), wk =   0.0416667
        k(   32) = (   0.0833333   0.4811252   0.0000000), wk =   0.0416667
        k(   33) = (   0.0833333   0.5292377   0.0000000), wk =   0.0416667
        k(   34) = (   0.0833333   0.5773503   0.0000000), wk =   0.0208333
        k(   35) = (   0.1250000   0.2165064   0.0000000), wk =   0.0208333
        k(   36) = (   0.1250000   0.2646189   0.0000000), wk =   0.0416667
        k(   37) = (   0.1250000   0.3127314   0.0000000), wk =   0.0416667
        k(   38) = (   0.1250000   0.3608439   0.0000000), wk =   0.0416667
        k(   39) = (   0.1250000   0.4089564   0.0000000), wk =   0.0416667
        k(   40) = (   0.1250000   0.4570690   0.0000000), wk =   0.0416667
        k(   41) = (   0.1250000   0.5051815   0.0000000), wk =   0.0416667
        k(   42) = (   0.1250000   0.5532940   0.0000000), wk =   0.0416667
        k(   43) = (   0.1666667   0.2886751   0.0000000), wk =   0.0208333
        k(   44) = (   0.1666667   0.3367877   0.0000000), wk =   0.0416667
        k(   45) = (   0.1666667   0.3849002   0.0000000), wk =   0.0416667
        k(   46) = (   0.1666667   0.4330127   0.0000000), wk =   0.0416667
        k(   47) = (   0.1666667   0.4811252   0.0000000), wk =   0.0416667
        k(   48) = (   0.1666667   0.5292377   0.0000000), wk =   0.0416667
        k(   49) = (   0.1666667   0.5773503   0.0000000), wk =   0.0208333
        k(   50) = (   0.2083333   0.3608439   0.0000000), wk =   0.0208333
        k(   51) = (   0.2083333   0.4089564   0.0000000), wk =   0.0416667
        k(   52) = (   0.2083333   0.4570690   0.0000000), wk =   0.0416667
        k(   53) = (   0.2083333   0.5051815   0.0000000), wk =   0.0416667
        k(   54) = (   0.2083333   0.5532940   0.0000000), wk =   0.0416667
        k(   55) = (   0.2500000   0.4330127   0.0000000), wk =   0.0208333
        k(   56) = (   0.2500000   0.4811252   0.0000000), wk =   0.0416667
        k(   57) = (   0.2500000   0.5292377   0.0000000), wk =   0.0416667
        k(   58) = (   0.2500000   0.5773503   0.0000000), wk =   0.0208333
        k(   59) = (   0.2916667   0.5051815   0.0000000), wk =   0.0208333
        k(   60) = (   0.2916667   0.5532940   0.0000000), wk =   0.0416667
        k(   61) = (   0.3333333   0.5773503   0.0000000), wk =   0.0069444

     Dense  grid:   455489 G-vectors     FFT dimensions: (  64,  64, 270)

     Smooth grid:   160939 G-vectors     FFT dimensions: (  45,  45, 192)

     Estimated max dynamical RAM per process >     322.30 MB

     Estimated total dynamical RAM >       1.89 GB

     Initial potential from superposition of free atoms

     starting charge   25.99991, renormalised to   28.00000

     negative rho (up, down):  5.949E-04 0.000E+00
     Starting wfcs are   18 randomized atomic wfcs

     total cpu time spent up to now is        6.3 secs

     Self-consistent Calculation

     iteration #  1     ecut=    60.00 Ry     beta= 0.70
     Davidson diagonalization with overlap
     ethr =  1.00E-02,  avg # of iterations =  8.8

     total cpu time spent up to now is       26.0 secs

     total energy              =    -325.41129637 Ry
     estimated scf accuracy    <       2.56490855 Ry

     iteration #  2     ecut=    60.00 Ry     beta= 0.70
     Davidson diagonalization with overlap
     ethr =  9.16E-03,  avg # of iterations =  3.3

     total cpu time spent up to now is       44.2 secs

     total energy              =    -326.37032407 Ry
     estimated scf accuracy    <       0.46778745 Ry

     iteration #  3     ecut=    60.00 Ry     beta= 0.70
     Davidson diagonalization with overlap
     ethr =  1.67E-03,  avg # of iterations =  2.0

     total cpu time spent up to now is       62.2 secs

     total energy              =    -326.44166723 Ry
     estimated scf accuracy    <       0.00892337 Ry

     iteration #  4     ecut=    60.00 Ry     beta= 0.70
     Davidson diagonalization with overlap
     ethr =  3.19E-05,  avg # of iterations =  9.0

     negative rho (up, down):  3.438E-05 0.000E+00

     total cpu time spent up to now is       83.9 secs

     total energy              =    -326.44412248 Ry
     estimated scf accuracy    <       0.00027227 Ry

     iteration #  5     ecut=    60.00 Ry     beta= 0.70
     Davidson diagonalization with overlap
     c_bands:  1 eigenvalues not converged
     c_bands:  1 eigenvalues not converged
     ethr =  9.72E-07,  avg # of iterations =  6.5

     negative rho (up, down):  4.962E-05 0.000E+00

     total cpu time spent up to now is      102.3 secs

     total energy              =    -326.44413008 Ry
     estimated scf accuracy    <       0.00002855 Ry

     iteration #  6     ecut=    60.00 Ry     beta= 0.70
     Davidson diagonalization with overlap
     ethr =  1.02E-07,  avg # of iterations =  3.3

     negative rho (up, down):  5.699E-05 0.000E+00

     total cpu time spent up to now is      119.8 secs

     total energy              =    -326.44413497 Ry
     estimated scf accuracy    <       0.00001938 Ry

     iteration #  7     ecut=    60.00 Ry     beta= 0.70
     Davidson diagonalization with overlap
     ethr =  6.92E-08,  avg # of iterations =  2.3

     negative rho (up, down):  7.419E-05 0.000E+00

     total cpu time spent up to now is      133.5 secs

     End of self-consistent calculation

          k = 0.0000 0.0000 0.0000 ( 20025 PWs)   bands (ev):

   -23.6371 -23.6371 -23.5515 -23.5515 -23.5200 -23.4488 -23.3279 -23.3279
   -23.2785 -23.2785 -11.4873  -5.3453  -2.5240  -2.5240  -2.0453  -0.1097
     0.9792   0.9792

          k = 0.0000 0.0481 0.0000 ( 20035 PWs)   bands (ev):

   -23.6380 -23.6379 -23.5514 -23.5501 -23.5196 -23.4479 -23.3303 -23.3301
   -23.2771 -23.2763 -11.4726  -5.3696  -2.8057  -2.5565  -1.7441  -0.1090
     0.9502   1.0351

          k = 0.0000 0.0962 0.0000 ( 20005 PWs)   bands (ev):

   -23.6405 -23.6399 -23.5516 -23.5464 -23.5179 -23.4450 -23.3364 -23.3357
   -23.2737 -23.2708 -11.4285  -5.4511  -3.1861  -2.6470  -1.3105  -0.1105
     0.8975   1.1948

          k = 0.0000 0.1443 0.0000 ( 20065 PWs)   bands (ev):

   -23.6439 -23.6425 -23.5530 -23.5409 -23.5151 -23.4404 -23.3445 -23.3432
   -23.2697 -23.2637 -11.3554  -5.6106  -3.4885  -2.7786  -0.9472  -0.1232
     0.9063   1.4384

          k = 0.0000 0.1925 0.0000 ( 20113 PWs)   bands (ev):

   -23.6479 -23.6451 -23.5560 -23.5343 -23.5116 -23.4339 -23.3534 -23.3510
   -23.2664 -23.2562 -11.2537  -5.8626  -3.6753  -2.9326  -0.7456  -0.1505
     1.0587   1.7408

          k = 0.0000 0.2406 0.0000 ( 20071 PWs)   bands (ev):

   -23.6518 -23.6470 -23.5604 -23.5273 -23.5084 -23.4259 -23.3622 -23.3582
   -23.2642 -23.2489 -11.1242  -6.1958  -3.7487  -3.0929  -0.7287  -0.1869
     1.3324   2.2578

          k = 0.0000 0.2887 0.0000 ( 20087 PWs)   bands (ev):

   -23.6555 -23.6479 -23.5660 -23.5203 -23.5064 -23.4167 -23.3706 -23.3638
   -23.2634 -23.2421 -10.9685  -6.5795  -3.7343  -3.2479  -0.8277  -0.2443
     1.5914   2.4361

          k = 0.0000 0.3368 0.0000 ( 20109 PWs)   bands (ev):

   -23.6587 -23.6475 -23.5724 -23.5139 -23.5056 -23.4073 -23.3782 -23.3671
   -23.2641 -23.2361 -10.7889  -6.9829  -3.6601  -3.3890  -0.9748  -0.3343
     1.7621   2.6465

          k = 0.0000 0.3849 0.0000 ( 20145 PWs)   bands (ev):

   -23.6613 -23.6460 -23.5794 -23.5083 -23.5061 -23.3992 -23.3847 -23.3673
   -23.2663 -23.2310 -10.5897  -7.3822  -3.5486  -3.5104  -1.1378  -0.4480
     1.9003   2.8624

          k = 0.0000 0.4330 0.0000 ( 20161 PWs)   bands (ev):

   -23.6634 -23.6433 -23.5865 -23.5071 -23.5038 -23.3940 -23.3900 -23.3639
   -23.2694 -23.2270 -10.3791  -7.7571  -3.6083  -3.4192  -1.3013  -0.5640
     2.0507   3.0794

          k = 0.0000 0.4811 0.0000 ( 20157 PWs)   bands (ev):

   -23.6648 -23.6400 -23.5931 -23.5083 -23.5005 -23.3938 -23.3916 -23.3583
   -23.2729 -23.2240 -10.1737  -8.0838  -3.6799  -3.2931  -1.4501  -0.6604
     2.2149   3.2545

          k = 0.0000 0.5292 0.0000 ( 20142 PWs)   bands (ev):

   -23.6656 -23.6370 -23.5982 -23.5092 -23.4985 -23.3961 -23.3907 -23.3534
   -23.2758 -23.2222 -10.0082  -8.3236  -3.7234  -3.1970  -1.5599  -0.7228
     2.3629   3.3097

          k = 0.0000-0.5774 0.0000 ( 20152 PWs)   bands (ev):

   -23.6659 -23.6357 -23.6002 -23.5096 -23.4978 -23.3969 -23.3905 -23.3515
   -23.2770 -23.2216  -9.9406  -8.4161  -3.7381  -3.1602  -1.6014  -0.7443
     2.4286   3.3105

          k = 0.0417 0.0722 0.0000 ( 20017 PWs)   bands (ev):

   -23.6398 -23.6392 -23.5514 -23.5477 -23.5185 -23.4460 -23.3346 -23.3339
   -23.2748 -23.2723 -11.4432  -5.4225  -3.0872  -2.6223  -1.4202  -0.1095
     0.8997   1.1516

          k = 0.0417 0.1203 0.0000 ( 20039 PWs)   bands (ev):

   -23.6429 -23.6413 -23.5521 -23.5434 -23.5161 -23.4423 -23.3416 -23.3404
   -23.2715 -23.2659 -11.3846  -5.5434  -3.3883  -2.7432  -1.0397  -0.1176
     0.8494   1.3739

          k = 0.0417 0.1684 0.0000 ( 20081 PWs)   bands (ev):

   -23.6468 -23.6437 -23.5543 -23.5376 -23.5124 -23.4369 -23.3499 -23.3479
   -23.2683 -23.2584 -11.2971  -5.7509  -3.6086  -2.8971  -0.7442  -0.1422
     0.8932   1.6704

          k = 0.0417 0.2165 0.0000 ( 20075 PWs)   bands (ev):

   -23.6510 -23.6456 -23.5582 -23.5312 -23.5085 -23.4299 -23.3585 -23.3554
   -23.2660 -23.2508 -11.1815  -6.0459  -3.7224  -3.0639  -0.6276  -0.1745
     1.0915   1.9955

          k = 0.0417 0.2646 0.0000 ( 20107 PWs)   bands (ev):

   -23.6550 -23.6467 -23.5633 -23.5245 -23.5051 -23.4216 -23.3669 -23.3617
   -23.2649 -23.2436 -11.0388  -6.4054  -3.7425  -3.2281  -0.6835  -0.2072
     1.3853   2.2248

          k = 0.0417 0.3127 0.0000 ( 20105 PWs)   bands (ev):

   -23.6586 -23.6468 -23.5694 -23.5183 -23.5029 -23.4127 -23.3746 -23.3660
   -23.2653 -23.2370 -10.8708  -6.7984  -3.6977  -3.3760  -0.8258  -0.2640
     1.6447   2.4299

          k = 0.0417 0.3608 0.0000 ( 20127 PWs)   bands (ev):

   -23.6617 -23.6457 -23.5762 -23.5131 -23.5017 -23.4044 -23.3814 -23.3677
   -23.2671 -23.2313 -10.6807  -7.1986  -3.6358  -3.4758  -0.9997  -0.3497
     1.8247   2.6677

          k = 0.0417 0.4090 0.0000 ( 20135 PWs)   bands (ev):

   -23.6641 -23.6434 -23.5833 -23.5093 -23.5010 -23.3983 -23.3869 -23.3658
   -23.2702 -23.2266 -10.4744  -7.5853  -3.6736  -3.4252  -1.1828  -0.4487
     1.9793   2.8543

          k = 0.0417 0.4571 0.0000 ( 20146 PWs)   bands (ev):

   -23.6660 -23.6403 -23.5902 -23.5077 -23.4998 -23.3957 -23.3904 -23.3610
   -23.2739 -23.2229 -10.2631  -7.9378  -3.7489  -3.3023  -1.3593  -0.5406
     2.1390   2.9755

          k = 0.0417 0.5052 0.0000 ( 20148 PWs)   bands (ev):

   -23.6671 -23.6370 -23.5961 -23.5075 -23.4984 -23.3963 -23.3913 -23.3554
   -23.2774 -23.2205 -10.0711  -8.2266  -3.8048  -3.1858  -1.5073  -0.6092
     2.2925   3.0622

          k = 0.0417 0.5533 0.0000 ( 20150 PWs)   bands (ev):

   -23.6677 -23.6346 -23.5998 -23.5076 -23.4976 -23.3973 -23.3912 -23.3518
   -23.2797 -23.2192  -9.9460  -8.4008  -3.8336  -3.1133  -1.5954  -0.6453
     2.3950   3.1608

          k = 0.0833 0.1443 0.0000 ( 20061 PWs)   bands (ev):

   -23.6466 -23.6430 -23.5535 -23.5392 -23.5125 -23.4379 -23.3486 -23.3468
   -23.2694 -23.2589 -11.3117  -5.7136  -3.5745  -2.9012  -0.7169  -0.1423
     0.7955   1.6720

          k = 0.0833 0.1925 0.0000 ( 20087 PWs)   bands (ev):

   -23.6510 -23.6444 -23.5567 -23.5341 -23.5076 -23.4322 -23.3564 -23.3538
   -23.2679 -23.2511 -11.2102  -5.9675  -3.6894  -3.0881  -0.4597  -0.1895
     0.8366   2.0227

          k = 0.0833 0.2406 0.0000 ( 20121 PWs)   bands (ev):

   -23.6555 -23.6452 -23.5614 -23.5284 -23.5025 -23.4256 -23.3641 -23.3603
   -23.2675 -23.2433 -11.0811  -6.2917  -3.7249  -3.2772  -0.4361  -0.1788
     1.0392   2.1972

          k = 0.0833 0.2887 0.0000 ( 20106 PWs)   bands (ev):

   -23.6598 -23.6452 -23.5672 -23.5227 -23.4982 -23.4183 -23.3716 -23.3652
   -23.2683 -23.2359 -10.9257  -6.6603  -3.7033  -3.4441  -0.5910  -0.1508
     1.3535   2.2716

          k = 0.0833 0.3368 0.0000 ( 20114 PWs)   bands (ev):

   -23.6636 -23.6441 -23.5738 -23.5173 -23.4953 -23.4112 -23.3783 -23.3676
   -23.2704 -23.2293 -10.7464  -7.0481  -3.7082  -3.5137  -0.7930  -0.1712
     1.6626   2.4084

          k = 0.0833 0.3849 0.0000 ( 20126 PWs)   bands (ev):

   -23.6668 -23.6419 -23.5807 -23.5126 -23.4939 -23.4055 -23.3839 -23.3667
   -23.2738 -23.2236 -10.5472  -7.4340  -3.8098  -3.4267  -1.0109  -0.2220
     1.8980   2.5666

          k = 0.0833 0.4330 0.0000 ( 20149 PWs)   bands (ev):

   -23.6692 -23.6389 -23.5876 -23.5086 -23.4938 -23.4018 -23.3883 -23.3628
   -23.2781 -23.2190 -10.3359  -7.7992  -3.9126  -3.2911  -1.2281  -0.2824
     2.0796   2.6713

          k = 0.0833 0.4811 0.0000 ( 20151 PWs)   bands (ev):

   -23.6710 -23.6354 -23.5940 -23.5055 -23.4946 -23.3999 -23.3913 -23.3574
   -23.2825 -23.2156 -10.1288  -8.1203  -3.9905  -3.1509  -1.4247  -0.3361
     2.2234   2.7647

          k = 0.0833 0.5292 0.0000 ( 20157 PWs)   bands (ev):

   -23.6720 -23.6323 -23.5989 -23.5032 -23.4958 -23.3992 -23.3930 -23.3526
   -23.2862 -23.2136  -9.9604  -8.3587  -4.0383  -3.0392  -1.5704  -0.3723
     2.3104   2.9047

          k = 0.0833 0.5774 0.0000 ( 20154 PWs)   bands (ev):

   -23.6724 -23.6310 -23.6008 -23.5022 -23.4964 -23.3990 -23.3935 -23.3507
   -23.2876 -23.2129  -9.8909  -8.4517  -4.0543  -2.9949  -1.6261  -0.3849
     2.3367   3.0245

          k = 0.1250 0.2165 0.0000 ( 20099 PWs)   bands (ev):

   -23.6557 -23.6447 -23.5606 -23.5299 -23.5013 -23.4271 -23.3631 -23.3599
   -23.2686 -23.2430 -11.0953  -6.2519  -3.7105  -3.3101  -0.2907  -0.1613
     0.8431   2.2176

          k = 0.1250 0.2646 0.0000 ( 20119 PWs)   bands (ev):

   -23.6606 -23.6441 -23.5660 -23.5251 -23.4949 -23.4220 -23.3698 -23.3648
   -23.2703 -23.2349 -10.9533  -6.5855  -3.6801  -3.5248  -0.4396   0.0364
     1.0065   2.2600

          k = 0.1250 0.3127 0.0000 ( 20122 PWs)   bands (ev):

   -23.6652 -23.6427 -23.5722 -23.5201 -23.4894 -23.4173 -23.3760 -23.3674
   -23.2733 -23.2273 -10.7860  -6.9473  -3.7575  -3.5653  -0.6371   0.1108
     1.3235   2.3166

          k = 0.1250 0.3608 0.0000 ( 20112 PWs)   bands (ev):

   -23.6692 -23.6405 -23.5789 -23.5150 -23.4858 -23.4134 -23.3817 -23.3671
   -23.2775 -23.2205 -10.5963  -7.3184  -3.9293  -3.4469  -0.8631   0.1144
     1.6851   2.3718

          k = 0.1250 0.4090 0.0000 ( 20146 PWs)   bands (ev):

   -23.6726 -23.6374 -23.5856 -23.5101 -23.4846 -23.4102 -23.3865 -23.3639
   -23.2826 -23.2148 -10.3895  -7.6817  -4.0740  -3.2981  -1.1001   0.0892
     1.9940   2.3923

          k = 0.1250 0.4571 0.0000 ( 20145 PWs)   bands (ev):

   -23.6752 -23.6338 -23.5921 -23.5054 -23.4856 -23.4073 -23.3906 -23.3589
   -23.2882 -23.2104 -10.1761  -8.0186  -4.1846  -3.1381  -1.3292   0.0563
     2.1740   2.4619

          k = 0.1250 0.5052 0.0000 ( 20141 PWs)   bands (ev):

   -23.6769 -23.6301 -23.5976 -23.5008 -23.4883 -23.4044 -23.3941 -23.3537
   -23.2933 -23.2073  -9.9792  -8.3005  -4.2589  -2.9907  -1.5243   0.0282
     2.2003   2.6660

          k = 0.1250 0.5533 0.0000 ( 20145 PWs)   bands (ev):

   -23.6778 -23.6276 -23.6011 -23.4964 -23.4920 -23.4020 -23.3969 -23.3502
   -23.2966 -23.2057  -9.8479  -8.4751  -4.2963  -2.8952  -1.6441   0.0124
     2.1921   2.8867

          k = 0.1667 0.2887 0.0000 ( 20113 PWs)   bands (ev):

   -23.6658 -23.6423 -23.5716 -23.5210 -23.4870 -23.4198 -23.3752 -23.3674
   -23.2744 -23.2266 -10.7993  -6.9116  -3.7758  -3.5867  -0.5870   0.3232
     1.0767   2.3284

          k = 0.1667 0.3368 0.0000 ( 20110 PWs)   bands (ev):

   -23.6707 -23.6397 -23.5779 -23.5163 -23.4801 -23.4190 -23.3805 -23.3672
   -23.2797 -23.2188 -10.6211  -7.2549  -3.9987  -3.4625  -0.7861   0.4824
     1.3340   2.3863

          k = 0.1667 0.3849 0.0000 ( 20115 PWs)   bands (ev):

   -23.6750 -23.6364 -23.5844 -23.5112 -23.4755 -23.4185 -23.3854 -23.3644
   -23.2858 -23.2119 -10.4223  -7.6017  -4.1884  -3.3099  -1.0129   0.5241
     1.7176   2.3055

          k = 0.1667 0.4330 0.0000 ( 20139 PWs)   bands (ev):

   -23.6785 -23.6326 -23.5907 -23.5058 -23.4743 -23.4168 -23.3901 -23.3599
   -23.2925 -23.2062 -10.2096  -7.9372  -4.3386  -3.1399  -1.2483   0.5228
     2.1044   2.1906

          k = 0.1667 0.4811 0.0000 ( 20145 PWs)   bands (ev):

   -23.6811 -23.6286 -23.5964 -23.5004 -23.4763 -23.4134 -23.3946 -23.3547
   -23.2992 -23.2020  -9.9972  -8.2412  -4.4469  -2.9685  -1.4704   0.5106
     2.0870   2.4568

          k = 0.1667 0.5292 0.0000 ( 20147 PWs)   bands (ev):

   -23.6827 -23.6251 -23.6009 -23.4952 -23.4800 -23.4089 -23.3991 -23.3502
   -23.3045 -23.1994  -9.8186  -8.4764  -4.5121  -2.8263  -1.6447   0.4997
     2.0250   2.7568

          k = 0.1667 0.5774 0.0000 ( 20135 PWs)   bands (ev):

   -23.6832 -23.6236 -23.6028 -23.4924 -23.4825 -23.4049 -23.4030 -23.3483
   -23.3067 -23.1985  -9.7421  -8.5720  -4.5338  -2.7666  -1.7152   0.4955
     2.0038   2.9237

          k = 0.2083 0.3608 0.0000 ( 20119 PWs)   bands (ev):

   -23.6758 -23.6360 -23.5840 -23.5116 -23.4713 -23.4225 -23.3850 -23.3646
   -23.2869 -23.2108 -10.4333  -7.5731  -4.2297  -3.3150  -0.9824   0.8145
     1.4552   2.3468

          k = 0.2083 0.4090 0.0000 ( 20133 PWs)   bands (ev):

   -23.6803 -23.6320 -23.5900 -23.5062 -23.4650 -23.4252 -23.3898 -23.3604
   -23.2949 -23.2040 -10.2269  -7.8915  -4.4235  -3.1440  -1.2024   0.9726
     1.7750   2.1749

          k = 0.2083 0.4571 0.0000 ( 20137 PWs)   bands (ev):

   -23.6838 -23.6277 -23.5956 -23.5004 -23.4632 -23.4243 -23.3948 -23.3554
   -23.3029 -23.1986 -10.0099  -8.1969  -4.5722  -2.9610  -1.4278   1.0184
     1.9980   2.2150

          k = 0.2083 0.5052 0.0000 ( 20163 PWs)   bands (ev):

   -23.6863 -23.6237 -23.6005 -23.4947 -23.4658 -23.4195 -23.4002 -23.3504
   -23.3101 -23.1948  -9.8018  -8.4663  -4.6724  -2.7856  -1.6341   1.0326
     1.8936   2.5980

          k = 0.2083 0.5533 0.0000 ( 20157 PWs)   bands (ev):

   -23.6876 -23.6209 -23.6038 -23.4904 -23.4692 -23.4130 -23.4063 -23.3469
   -23.3148 -23.1929  -9.6533  -8.6461  -4.7227  -2.6625  -1.7736   1.0375
     1.8352   2.8942

          k = 0.2500 0.4330 0.0000 ( 20149 PWs)   bands (ev):

   -23.6848 -23.6275 -23.5953 -23.5004 -23.4556 -23.4312 -23.3948 -23.3556
   -23.3041 -23.1974 -10.0145  -8.1805  -4.6161  -2.9595  -1.4117   1.3397
     1.9408   2.0150

          k = 0.2500 0.4811 0.0000 ( 20153 PWs)   bands (ev):

   -23.6882 -23.6231 -23.6002 -23.4944 -23.4517 -23.4318 -23.4007 -23.3506
   -23.3128 -23.1924  -9.7945  -8.4571  -4.7577  -2.7675  -1.6245   1.5042
     1.8650   2.3139

          k = 0.2500 0.5292 0.0000 ( 20133 PWs)   bands (ev):

   -23.6904 -23.6193 -23.6043 -23.4893 -23.4544 -23.4250 -23.4076 -23.3459
   -23.3200 -23.1893  -9.5931  -8.6933  -4.8439  -2.5931  -1.8124   1.5718
     1.7503   2.7287

          k = 0.2500 0.5774 0.0000 ( 20123 PWs)   bands (ev):

   -23.6911 -23.6175 -23.6063 -23.4870 -23.4564 -23.4182 -23.4138 -23.3437
   -23.3231 -23.1882  -9.4945  -8.8036  -4.8728  -2.5093  -1.9010   1.6082
     1.6921   2.9498

          k = 0.2917 0.5052 0.0000 ( 20137 PWs)   bands (ev):

   -23.6913 -23.6188 -23.6045 -23.4889 -23.4410 -23.4375 -23.4081 -23.3456
   -23.3217 -23.1880  -9.5715  -8.7097  -4.8857  -2.5686  -1.8261   1.6560
     2.0161   2.4717

          k = 0.2917 0.5533 0.0000 ( 20132 PWs)   bands (ev):

   -23.6929 -23.6153 -23.6080 -23.4853 -23.4428 -23.4292 -23.4164 -23.3411
   -23.3284 -23.1858  -9.3744  -8.9216  -4.9508  -2.3953  -2.0009   1.6161
     2.1502   2.7649

          k = 0.3333 0.5774 0.0000 ( 20133 PWs)   bands (ev):

   -23.6938 -23.6116 -23.6115 -23.4838 -23.4340 -23.4324 -23.4225 -23.3354
   -23.3354 -23.1847  -9.1499  -9.1492  -4.9871  -2.1968  -2.1960   1.5832
     2.5842   2.5847

     the Fermi energy is    -2.1454 ev

!    total energy              =    -326.44413828 Ry
     estimated scf accuracy    <       0.00000058 Ry
     smearing contrib. (-TS)   =      -0.06589661 Ry
     internal energy E=F+TS    =    -326.37824166 Ry

     The total energy is F=E-TS. E is the sum of the following terms:
     one-electron contribution =    -856.20526106 Ry
     hartree contribution      =     435.70925464 Ry
     xc contribution           =     -95.00370056 Ry
     ewald contribution        =     189.12146532 Ry

     convergence has been achieved in   7 iterations

     Writing output data file ../tmp/stanene.save/

     init_run     :      5.96s CPU      6.20s WALL (       1 calls)
     electrons    :    122.34s CPU    127.22s WALL (       1 calls)

     Called by init_run:
     wfcinit      :      4.83s CPU      4.97s WALL (       1 calls)
     potinit      :      0.31s CPU      0.34s WALL (       1 calls)
     hinit0       :      0.40s CPU      0.41s WALL (       1 calls)

     Called by electrons:
     c_bands      :    106.40s CPU    109.29s WALL (       7 calls)
     sum_band     :     12.49s CPU     14.03s WALL (       7 calls)
     v_of_rho     :      1.25s CPU      1.35s WALL (       8 calls)
     newd         :      2.20s CPU      2.61s WALL (       8 calls)
     mix_rho      :      0.23s CPU      0.24s WALL (       7 calls)

     Called by c_bands:
     init_us_2    :      0.82s CPU      0.83s WALL (     915 calls)
     cegterg      :    103.05s CPU    105.91s WALL (     427 calls)

     Called by *egterg:
     cdiaghg      :      1.73s CPU      1.75s WALL (    2571 calls)
     h_psi        :     65.25s CPU     68.09s WALL (    2632 calls)
     s_psi        :      4.75s CPU      4.79s WALL (    2632 calls)
     g_psi        :      0.45s CPU      0.45s WALL (    2144 calls)

     Called by h_psi:
     h_psi:calbec :      8.28s CPU      8.54s WALL (    2632 calls)
     vloc_psi     :     51.75s CPU     54.25s WALL (    2632 calls)
     add_vuspsi   :      4.96s CPU      5.05s WALL (    2632 calls)

     General routines
     calbec       :     10.38s CPU     10.77s WALL (    3059 calls)
     fft          :      1.32s CPU      1.39s WALL (     102 calls)
     ffts         :      0.03s CPU      0.03s WALL (      15 calls)
     fftw         :     53.42s CPU     56.03s WALL (   56004 calls)
     interpolate  :      0.09s CPU      0.10s WALL (       8 calls)

     Parallel routines
     fft_scatt_xy :      4.91s CPU      5.26s WALL (   56121 calls)
     fft_scatt_yz :     28.32s CPU     29.36s WALL (   56121 calls)

     PWSCF        :   2m 8.67s CPU   2m14.16s WALL


   This run was terminated on:  22:42:35  23Jan2024            

=------------------------------------------------------------------------------=
   JOB DONE.
=------------------------------------------------------------------------------=
