
     Program PWSCF v.6.7MaX starts on 23Jan2024 at 22:26:41 

     This program is part of the open-source Quantum ESPRESSO suite
     for quantum simulation of materials; please cite
         "P. Giannozzi et al., J. Phys.:Condens. Matter 21 395502 (2009);
         "P. Giannozzi et al., J. Phys.:Condens. Matter 29 465901 (2017);
          URL http://www.quantum-espresso.org", 
     in publications or presentations arising from this work. More details at
     http://www.quantum-espresso.org/quote

     Parallel version (MPI), running on     6 processors

     MPI processes distributed on     1 nodes
     R & G space division:  proc/nbgrp/npool/nimage =       6
     Waiting for input...
     Reading input from standard input

     Current dimensions of program PWSCF are:
     Max number of different atomic species (ntypx) = 10
     Max number of k-points (npk) =  40000
     Max angular momentum in pseudopotentials (lmaxx) =  3

     Subspace diagonalization in iterative solution of the eigenvalue problem:
     one sub-group per band group will be used
     scalapack distributed-memory algorithm (size of sub-group:  2*  2 procs)


     Parallelization info
     --------------------
     sticks:   dense  smooth     PW     G-vecs:    dense   smooth      PW
     Min         431     214     61                75909    26818    4015
     Max         432     215     62                75924    26841    4025
     Sum        2587    1285    367               455489   160939   24117



     bravais-lattice index     =            4
     lattice parameter (alat)  =       8.8506  a.u.
     unit-cell volume          =    2563.9136 (a.u.)^3
     number of atoms/cell      =            2
     number of atomic types    =            1
     number of electrons       =        28.00
     number of Kohn-Sham states=           18
     kinetic-energy cutoff     =      60.0000  Ry
     charge density cutoff     =     480.0000  Ry
     scf convergence threshold =      1.0E-06
     mixing beta               =       0.7000
     number of iterations used =            8  plain     mixing
     Exchange-correlation= SLA  PW   PBE  PBE
                           (   1   4   3   4   0   0   0)

     celldm(1)=   8.850584  celldm(2)=   0.000000  celldm(3)=   4.270286
     celldm(4)=   0.000000  celldm(5)=   0.000000  celldm(6)=   0.000000

     crystal axes: (cart. coord. in units of alat)
               a(1) = (   1.000000   0.000000   0.000000 )  
               a(2) = (  -0.500000   0.866025   0.000000 )  
               a(3) = (   0.000000   0.000000   4.270286 )  

     reciprocal axes: (cart. coord. in units 2 pi/alat)
               b(1) = (  1.000000  0.577350 -0.000000 )  
               b(2) = (  0.000000  1.154701  0.000000 )  
               b(3) = (  0.000000 -0.000000  0.234176 )  


     PseudoPot. # 1 for Sn read from file:
     ../pseudo/Sn_pbe_v1.uspp.F.UPF
     MD5 check sum: 4cf58ce39ec5d5d420df3dd08604eb00
     Pseudo is Ultrasoft + core correction, Zval = 14.0
     Generated by new atomic code, or converted to UPF format
     Using radial grid of  891 points,  6 beta functions with: 
                l(1) =   0
                l(2) =   0
                l(3) =   1
                l(4) =   1
                l(5) =   2
                l(6) =   2
     Q(r) pseudized with  6 coefficients,  rinner =    1.200   1.200   1.200
                                                       1.200   1.200

     atomic species   valence    mass     pseudopotential
        Sn            14.00   118.71000     Sn( 1.00)

      6 Sym. Ops. (no inversion) found



   Cartesian axes

     site n.     atom                  positions (alat units)
         1           Sn  tau(   1) = (   0.0000000   0.5773503   2.1351428  )
         2           Sn  tau(   2) = (   0.5000000   0.2886751   1.9552503  )

     number of k points=    61  Fermi-Dirac smearing, width (Ry)=  0.0050
                       cart. coord. in units 2pi/alat
        k(    1) = (   0.0000000   0.0000000   0.0000000), wk =   0.0034722
        k(    2) = (   0.0000000   0.0481125   0.0000000), wk =   0.0208333
        k(    3) = (   0.0000000   0.0962250   0.0000000), wk =   0.0208333
        k(    4) = (   0.0000000   0.1443376   0.0000000), wk =   0.0208333
        k(    5) = (   0.0000000   0.1924501   0.0000000), wk =   0.0208333
        k(    6) = (   0.0000000   0.2405626   0.0000000), wk =   0.0208333
        k(    7) = (   0.0000000   0.2886751   0.0000000), wk =   0.0208333
        k(    8) = (   0.0000000   0.3367877   0.0000000), wk =   0.0208333
        k(    9) = (   0.0000000   0.3849002   0.0000000), wk =   0.0208333
        k(   10) = (   0.0000000   0.4330127   0.0000000), wk =   0.0208333
        k(   11) = (   0.0000000   0.4811252   0.0000000), wk =   0.0208333
        k(   12) = (   0.0000000   0.5292377   0.0000000), wk =   0.0208333
        k(   13) = (   0.0000000  -0.5773503   0.0000000), wk =   0.0104167
        k(   14) = (   0.0416667   0.0721688   0.0000000), wk =   0.0208333
        k(   15) = (   0.0416667   0.1202813   0.0000000), wk =   0.0416667
        k(   16) = (   0.0416667   0.1683938   0.0000000), wk =   0.0416667
        k(   17) = (   0.0416667   0.2165064   0.0000000), wk =   0.0416667
        k(   18) = (   0.0416667   0.2646189   0.0000000), wk =   0.0416667
        k(   19) = (   0.0416667   0.3127314   0.0000000), wk =   0.0416667
        k(   20) = (   0.0416667   0.3608439   0.0000000), wk =   0.0416667
        k(   21) = (   0.0416667   0.4089564   0.0000000), wk =   0.0416667
        k(   22) = (   0.0416667   0.4570690   0.0000000), wk =   0.0416667
        k(   23) = (   0.0416667   0.5051815   0.0000000), wk =   0.0416667
        k(   24) = (   0.0416667   0.5532940   0.0000000), wk =   0.0416667
        k(   25) = (   0.0833333   0.1443376   0.0000000), wk =   0.0208333
        k(   26) = (   0.0833333   0.1924501   0.0000000), wk =   0.0416667
        k(   27) = (   0.0833333   0.2405626   0.0000000), wk =   0.0416667
        k(   28) = (   0.0833333   0.2886751   0.0000000), wk =   0.0416667
        k(   29) = (   0.0833333   0.3367877   0.0000000), wk =   0.0416667
        k(   30) = (   0.0833333   0.3849002   0.0000000), wk =   0.0416667
        k(   31) = (   0.0833333   0.4330127   0.0000000), wk =   0.0416667
        k(   32) = (   0.0833333   0.4811252   0.0000000), wk =   0.0416667
        k(   33) = (   0.0833333   0.5292377   0.0000000), wk =   0.0416667
        k(   34) = (   0.0833333   0.5773503   0.0000000), wk =   0.0208333
        k(   35) = (   0.1250000   0.2165064   0.0000000), wk =   0.0208333
        k(   36) = (   0.1250000   0.2646189   0.0000000), wk =   0.0416667
        k(   37) = (   0.1250000   0.3127314   0.0000000), wk =   0.0416667
        k(   38) = (   0.1250000   0.3608439   0.0000000), wk =   0.0416667
        k(   39) = (   0.1250000   0.4089564   0.0000000), wk =   0.0416667
        k(   40) = (   0.1250000   0.4570690   0.0000000), wk =   0.0416667
        k(   41) = (   0.1250000   0.5051815   0.0000000), wk =   0.0416667
        k(   42) = (   0.1250000   0.5532940   0.0000000), wk =   0.0416667
        k(   43) = (   0.1666667   0.2886751   0.0000000), wk =   0.0208333
        k(   44) = (   0.1666667   0.3367877   0.0000000), wk =   0.0416667
        k(   45) = (   0.1666667   0.3849002   0.0000000), wk =   0.0416667
        k(   46) = (   0.1666667   0.4330127   0.0000000), wk =   0.0416667
        k(   47) = (   0.1666667   0.4811252   0.0000000), wk =   0.0416667
        k(   48) = (   0.1666667   0.5292377   0.0000000), wk =   0.0416667
        k(   49) = (   0.1666667   0.5773503   0.0000000), wk =   0.0208333
        k(   50) = (   0.2083333   0.3608439   0.0000000), wk =   0.0208333
        k(   51) = (   0.2083333   0.4089564   0.0000000), wk =   0.0416667
        k(   52) = (   0.2083333   0.4570690   0.0000000), wk =   0.0416667
        k(   53) = (   0.2083333   0.5051815   0.0000000), wk =   0.0416667
        k(   54) = (   0.2083333   0.5532940   0.0000000), wk =   0.0416667
        k(   55) = (   0.2500000   0.4330127   0.0000000), wk =   0.0208333
        k(   56) = (   0.2500000   0.4811252   0.0000000), wk =   0.0416667
        k(   57) = (   0.2500000   0.5292377   0.0000000), wk =   0.0416667
        k(   58) = (   0.2500000   0.5773503   0.0000000), wk =   0.0208333
        k(   59) = (   0.2916667   0.5051815   0.0000000), wk =   0.0208333
        k(   60) = (   0.2916667   0.5532940   0.0000000), wk =   0.0416667
        k(   61) = (   0.3333333   0.5773503   0.0000000), wk =   0.0069444

     Dense  grid:   455489 G-vectors     FFT dimensions: (  64,  64, 270)

     Smooth grid:   160939 G-vectors     FFT dimensions: (  45,  45, 192)

     Estimated max dynamical RAM per process >     322.30 MB

     Estimated total dynamical RAM >       1.89 GB

     Initial potential from superposition of free atoms

     starting charge   25.99991, renormalised to   28.00000

     negative rho (up, down):  5.949E-04 0.000E+00
     Starting wfcs are   18 randomized atomic wfcs

     total cpu time spent up to now is        6.5 secs

     Self-consistent Calculation

     iteration #  1     ecut=    60.00 Ry     beta= 0.70
     Davidson diagonalization with overlap
     ethr =  1.00E-02,  avg # of iterations =  8.8

     negative rho (up, down):  2.269E-05 0.000E+00

     total cpu time spent up to now is       29.7 secs

     total energy              =    -325.45702950 Ry
     estimated scf accuracy    <       2.46985529 Ry

     iteration #  2     ecut=    60.00 Ry     beta= 0.70
     Davidson diagonalization with overlap
     ethr =  8.82E-03,  avg # of iterations =  2.1

     negative rho (up, down):  3.736E-05 0.000E+00

     total cpu time spent up to now is       47.8 secs

     total energy              =    -326.35831770 Ry
     estimated scf accuracy    <       0.38378794 Ry

     iteration #  3     ecut=    60.00 Ry     beta= 0.70
     Davidson diagonalization with overlap
     ethr =  1.37E-03,  avg # of iterations =  2.1

     negative rho (up, down):  6.078E-05 0.000E+00

     total cpu time spent up to now is       64.8 secs

     total energy              =    -326.41667637 Ry
     estimated scf accuracy    <       0.00628402 Ry

     iteration #  4     ecut=    60.00 Ry     beta= 0.70
     Davidson diagonalization with overlap
     c_bands:  1 eigenvalues not converged
     ethr =  2.24E-05,  avg # of iterations =  8.4

     negative rho (up, down):  8.129E-05 0.000E+00

     total cpu time spent up to now is       87.4 secs

     total energy              =    -326.41870625 Ry
     estimated scf accuracy    <       0.00033014 Ry

     iteration #  5     ecut=    60.00 Ry     beta= 0.70
     Davidson diagonalization with overlap
     c_bands:  1 eigenvalues not converged
     c_bands:  1 eigenvalues not converged
     ethr =  1.18E-06,  avg # of iterations =  5.4

     negative rho (up, down):  8.297E-05 0.000E+00

     total cpu time spent up to now is      105.0 secs

     total energy              =    -326.41873799 Ry
     estimated scf accuracy    <       0.00003608 Ry

     iteration #  6     ecut=    60.00 Ry     beta= 0.70
     Davidson diagonalization with overlap
     c_bands:  1 eigenvalues not converged
     ethr =  1.29E-07,  avg # of iterations =  2.3

     negative rho (up, down):  8.491E-05 0.000E+00

     total cpu time spent up to now is      119.2 secs

     total energy              =    -326.41874574 Ry
     estimated scf accuracy    <       0.00001637 Ry

     iteration #  7     ecut=    60.00 Ry     beta= 0.70
     Davidson diagonalization with overlap
     ethr =  5.85E-08,  avg # of iterations =  2.1

     negative rho (up, down):  8.562E-05 0.000E+00

     total cpu time spent up to now is      133.5 secs

     End of self-consistent calculation

          k = 0.0000 0.0000 0.0000 ( 20025 PWs)   bands (ev):

   -23.5291 -23.5291 -23.4505 -23.4505 -23.4353 -23.3653 -23.2239 -23.2239
   -23.1682 -23.1682 -11.3748  -5.2752  -2.4054  -2.4054  -1.9453  -0.0653
     1.0900   1.0900

          k = 0.0000 0.0481 0.0000 ( 20035 PWs)   bands (ev):

   -23.5300 -23.5298 -23.4522 -23.4493 -23.4330 -23.3641 -23.2264 -23.2262
   -23.1669 -23.1659 -11.3601  -5.2983  -2.6944  -2.4379  -1.6380  -0.0642
     1.0600   1.1458

          k = 0.0000 0.0962 0.0000 ( 20005 PWs)   bands (ev):

   -23.5324 -23.5320 -23.4558 -23.4460 -23.4278 -23.3604 -23.2329 -23.2324
   -23.1637 -23.1601 -11.3161  -5.3760  -3.0810  -2.5284  -1.2022  -0.0642
     1.0049   1.3052

          k = 0.0000 0.1443 0.0000 ( 20065 PWs)   bands (ev):

   -23.5356 -23.5349 -23.4604 -23.4410 -23.4214 -23.3543 -23.2415 -23.2408
   -23.1599 -23.1525 -11.2429  -5.5291  -3.3906  -2.6602  -0.8383  -0.0741
     1.0091   1.5481

          k = 0.0000 0.1925 0.0000 ( 20113 PWs)   bands (ev):

   -23.5389 -23.5383 -23.4658 -23.4350 -23.4152 -23.3460 -23.2509 -23.2500
   -23.1566 -23.1444 -11.1413  -5.7733  -3.5856  -2.8142  -0.6376  -0.0973
     1.1541   2.1786

          k = 0.0000 0.2406 0.0000 ( 20071 PWs)   bands (ev):

   -23.5416 -23.5415 -23.4716 -23.4286 -23.4100 -23.3358 -23.2603 -23.2592
   -23.1545 -23.1364 -11.0119  -6.0996  -3.6658  -2.9747  -0.6247  -0.1266
     1.4137   2.2893

          k = 0.0000 0.2887 0.0000 ( 20087 PWs)   bands (ev):

   -23.5447 -23.5432 -23.4778 -23.4224 -23.4062 -23.3244 -23.2693 -23.2675
   -23.1537 -23.1290 -10.8562  -6.4783  -3.6562  -3.1296  -0.7295  -0.1751
     1.6506   2.4646

          k = 0.0000 0.3368 0.0000 ( 20109 PWs)   bands (ev):

   -23.5473 -23.5436 -23.4843 -23.4166 -23.4039 -23.3127 -23.2775 -23.2739
   -23.1543 -23.1224 -10.6768  -6.8783  -3.5849  -3.2708  -0.8831  -0.2560
     1.8053   2.6672

          k = 0.0000 0.3849 0.0000 ( 20145 PWs)   bands (ev):

   -23.5494 -23.5427 -23.4910 -23.4115 -23.4030 -23.3025 -23.2845 -23.2775
   -23.1561 -23.1168 -10.4777  -7.2753  -3.4750  -3.3922  -1.0530  -0.3608
     1.9370   2.8824

          k = 0.0000 0.4330 0.0000 ( 20161 PWs)   bands (ev):

   -23.5510 -23.5407 -23.4976 -23.4075 -23.4029 -23.2968 -23.2902 -23.2760
   -23.1589 -23.1123 -10.2673  -7.6487  -3.4901  -3.3462  -1.2235  -0.4687
     2.0854   3.1009

          k = 0.0000 0.4811 0.0000 ( 20157 PWs)   bands (ev):

   -23.5520 -23.5379 -23.5037 -23.4045 -23.4034 -23.2958 -23.2944 -23.2703
   -23.1619 -23.1090 -10.0620  -7.9744  -3.5617  -3.2199  -1.3784  -0.5590
     2.2501   3.2801

          k = 0.0000 0.5292 0.0000 ( 20142 PWs)   bands (ev):

   -23.5527 -23.5351 -23.5085 -23.4038 -23.4027 -23.2969 -23.2962 -23.2651
   -23.1642 -23.1070  -9.8967  -8.2135  -3.6053  -3.1233  -1.4924  -0.6175
     2.4001   3.3370

          k = 0.0000-0.5774 0.0000 ( 20152 PWs)   bands (ev):

   -23.5529 -23.5338 -23.5105 -23.4040 -23.4021 -23.2977 -23.2964 -23.2631
   -23.1652 -23.1064  -9.8293  -8.3058  -3.6199  -3.0862  -1.5355  -0.6377
     2.4674   3.3871

          k = 0.0417 0.0722 0.0000 ( 20017 PWs)   bands (ev):

   -23.5316 -23.5313 -23.4546 -23.4472 -23.4293 -23.3616 -23.2310 -23.2303
   -23.1648 -23.1618 -11.3307  -5.3487  -2.9804  -2.5037  -1.3122  -0.0637
     1.0078   1.2620

          k = 0.0417 0.1203 0.0000 ( 20039 PWs)   bands (ev):

   -23.5343 -23.5340 -23.4585 -23.4434 -23.4234 -23.3568 -23.2385 -23.2373
   -23.1617 -23.1549 -11.2721  -5.4645  -3.2878  -2.6248  -0.9308  -0.0695
     0.9543   1.4837

          k = 0.0417 0.1684 0.0000 ( 20081 PWs)   bands (ev):

   -23.5377 -23.5369 -23.4633 -23.4382 -23.4168 -23.3497 -23.2475 -23.2460
   -23.1586 -23.1469 -11.1847  -5.6648  -3.5157  -2.7788  -0.6354  -0.0907
     0.9930   1.7786

          k = 0.0417 0.2165 0.0000 ( 20075 PWs)   bands (ev):

   -23.5413 -23.5396 -23.4689 -23.4324 -23.4106 -23.3407 -23.2567 -23.2551
   -23.1564 -23.1386 -11.0691  -5.9524  -3.6368  -2.9457  -0.5220  -0.1165
     1.1832   2.0944

          k = 0.0417 0.2646 0.0000 ( 20107 PWs)   bands (ev):

   -23.5447 -23.5415 -23.4749 -23.4264 -23.4055 -23.3301 -23.2657 -23.2638
   -23.1554 -23.1307 -10.9265  -6.3061  -3.6624  -3.1102  -0.5853  -0.1390
     1.4619   2.2911

          k = 0.0417 0.3127 0.0000 ( 20105 PWs)   bands (ev):

   -23.5477 -23.5424 -23.4813 -23.4206 -23.4019 -23.3187 -23.2741 -23.2712
   -23.1558 -23.1235 -10.7586  -6.6951  -3.6203  -3.2592  -0.7346  -0.1859
     1.6997   2.4973

          k = 0.0417 0.3608 0.0000 ( 20127 PWs)   bands (ev):

   -23.5501 -23.5421 -23.4880 -23.4154 -23.3998 -23.3079 -23.2815 -23.2763
   -23.1574 -23.1172 -10.5686  -7.0927  -3.5508  -3.3687  -0.9151  -0.2628
     1.8656   2.7220

          k = 0.0417 0.4090 0.0000 ( 20135 PWs)   bands (ev):

   -23.5519 -23.5407 -23.4946 -23.4110 -23.3990 -23.3000 -23.2877 -23.2773
   -23.1602 -23.1120 -10.3624  -7.4776  -3.5633  -3.3445  -1.1044  -0.3540
     2.0151   2.9061

          k = 0.0417 0.4571 0.0000 ( 20146 PWs)   bands (ev):

   -23.5533 -23.5383 -23.5010 -23.4075 -23.3992 -23.2973 -23.2924 -23.2730
   -23.1635 -23.1079 -10.1514  -7.8289  -3.6335  -3.2269  -1.2865  -0.4398
     2.1743   3.0325

          k = 0.0417 0.5052 0.0000 ( 20148 PWs)   bands (ev):

   -23.5541 -23.5354 -23.5065 -23.4047 -23.3999 -23.2974 -23.2954 -23.2672
   -23.1665 -23.1052  -9.9596  -8.1168  -3.6884  -3.1112  -1.4387  -0.5042
     2.3298   3.1193

          k = 0.0417 0.5533 0.0000 ( 20150 PWs)   bands (ev):

   -23.5545 -23.5332 -23.5101 -23.4027 -23.4011 -23.2981 -23.2967 -23.2634
   -23.1684 -23.1038  -9.8346  -8.2906  -3.7169  -3.0386  -1.5292  -0.5384
     2.4356   3.2185

          k = 0.0833 0.1443 0.0000 ( 20061 PWs)   bands (ev):

   -23.5373 -23.5365 -23.4623 -23.4399 -23.4170 -23.3510 -23.2464 -23.2444
   -23.1598 -23.1474 -11.1992  -5.6287  -3.4805  -2.7829  -0.6077  -0.0912
     0.8965   1.7805

          k = 0.0833 0.1925 0.0000 ( 20087 PWs)   bands (ev):

   -23.5411 -23.5386 -23.4671 -23.4354 -23.4099 -23.3435 -23.2550 -23.2526
   -23.1585 -23.1389 -11.0978  -5.8758  -3.6024  -2.9699  -0.3520  -0.1328
     0.9324   2.1235

          k = 0.0833 0.2406 0.0000 ( 20121 PWs)   bands (ev):

   -23.5451 -23.5402 -23.4728 -23.4303 -23.4031 -23.3344 -23.2636 -23.2611
   -23.1582 -23.1305 -10.9688  -6.1941  -3.6435  -3.1594  -0.3493  -0.0986
     1.1285   2.2434

          k = 0.0833 0.2887 0.0000 ( 20106 PWs)   bands (ev):

   -23.5487 -23.5409 -23.4790 -23.4250 -23.3976 -23.3244 -23.2716 -23.2688
   -23.1592 -23.1224 -10.8135  -6.5584  -3.6236  -3.3288  -0.5115  -0.0612
     1.4308   2.3289

          k = 0.0833 0.3368 0.0000 ( 20114 PWs)   bands (ev):

   -23.5519 -23.5407 -23.4856 -23.4197 -23.3937 -23.3143 -23.2790 -23.2747
   -23.1614 -23.1152 -10.6342  -6.9432  -3.6109  -3.4187  -0.7164  -0.0767
     1.7203   2.4791

          k = 0.0833 0.3849 0.0000 ( 20126 PWs)   bands (ev):

   -23.5545 -23.5396 -23.4922 -23.4148 -23.3916 -23.3059 -23.2854 -23.2772
   -23.1647 -23.1089 -10.4352  -7.3271  -3.6977  -3.3482  -0.9371  -0.1228
     1.9399   2.6379

          k = 0.0833 0.4330 0.0000 ( 20149 PWs)   bands (ev):

   -23.5564 -23.5375 -23.4986 -23.4103 -23.3913 -23.3015 -23.2905 -23.2748
   -23.1688 -23.1039 -10.2241  -7.6908  -3.7977  -3.2162  -1.1571  -0.1792
     2.1164   2.7371

          k = 0.0833 0.4811 0.0000 ( 20151 PWs)   bands (ev):

   -23.5577 -23.5347 -23.5045 -23.4062 -23.3924 -23.3003 -23.2944 -23.2692
   -23.1730 -23.1002 -10.0172  -8.0110  -3.8747  -3.0770  -1.3562  -0.2300
     2.2629   2.8235

          k = 0.0833 0.5292 0.0000 ( 20157 PWs)   bands (ev):

   -23.5584 -23.5321 -23.5091 -23.4026 -23.3944 -23.3000 -23.2970 -23.2642
   -23.1762 -23.0980  -9.8490  -8.2487  -3.9222  -2.9653  -1.5037  -0.2644
     2.3562   2.9568

          k = 0.0833 0.5774 0.0000 ( 20154 PWs)   bands (ev):

   -23.5587 -23.5308 -23.5110 -23.4007 -23.3959 -23.2997 -23.2982 -23.2622
   -23.1775 -23.0972  -9.7796  -8.3415  -3.9382  -2.9209  -1.5601  -0.2765
     2.3854   3.0782

          k = 0.1250 0.2165 0.0000 ( 20099 PWs)   bands (ev):

   -23.5452 -23.5398 -23.4719 -23.4319 -23.4020 -23.3361 -23.2629 -23.2600
   -23.1595 -23.1302 -10.9829  -6.1550  -3.6288  -3.1920  -0.2314  -0.0519
     0.9341   2.2527

          k = 0.1250 0.2646 0.0000 ( 20119 PWs)   bands (ev):

   -23.5494 -23.5402 -23.4777 -23.4275 -23.3944 -23.3279 -23.2705 -23.2674
   -23.1616 -23.1214 -10.8410  -6.4844  -3.6014  -3.4080  -0.3753   0.1429
     1.0932   2.3043

          k = 0.1250 0.3127 0.0000 ( 20122 PWs)   bands (ev):

   -23.5533 -23.5398 -23.4839 -23.4226 -23.3881 -23.3197 -23.2775 -23.2734
   -23.1649 -23.1132 -10.6738  -6.8432  -3.6464  -3.4838  -0.5697   0.2150
     1.4029   2.3725

          k = 0.1250 0.3608 0.0000 ( 20112 PWs)   bands (ev):

   -23.5567 -23.5386 -23.4904 -23.4176 -23.3837 -23.3125 -23.2837 -23.2766
   -23.1694 -23.1058 -10.4843  -7.2121  -3.8137  -3.3720  -0.7947   0.2187
     1.7491   2.4391

          k = 0.1250 0.4090 0.0000 ( 20146 PWs)   bands (ev):

   -23.5595 -23.5366 -23.4968 -23.4124 -23.3817 -23.3078 -23.2891 -23.2756
   -23.1747 -23.0996 -10.2776  -7.5739  -3.9577  -3.2250  -1.0318   0.1950
     2.0395   2.4638

          k = 0.1250 0.4571 0.0000 ( 20145 PWs)   bands (ev):

   -23.5615 -23.5340 -23.5028 -23.4075 -23.3821 -23.3054 -23.2936 -23.2709
   -23.1803 -23.0948 -10.0644  -7.9097  -4.0681  -3.0658  -1.2615   0.1638
     2.2170   2.5241

          k = 0.1250 0.5052 0.0000 ( 20141 PWs)   bands (ev):

   -23.5629 -23.5312 -23.5079 -23.4029 -23.3840 -23.3040 -23.2971 -23.2653
   -23.1853 -23.0914  -9.8677  -8.1908  -4.1423  -2.9186  -1.4574   0.1369
     2.2539   2.7125

          k = 0.1250 0.5533 0.0000 ( 20145 PWs)   bands (ev):

   -23.5636 -23.5290 -23.5112 -23.3996 -23.3861 -23.3025 -23.2999 -23.2616
   -23.1884 -23.0898  -9.7366  -8.3650  -4.1796  -2.8230  -1.5779   0.1217
     2.2493   2.9296

          k = 0.1667 0.2887 0.0000 ( 20113 PWs)   bands (ev):

   -23.5538 -23.5395 -23.4834 -23.4237 -23.3857 -23.3220 -23.2770 -23.2729
   -23.1662 -23.1124 -10.6871  -6.8078  -3.6578  -3.5120  -0.5226   0.4324
     1.1607   2.3767

          k = 0.1667 0.3368 0.0000 ( 20110 PWs)   bands (ev):

   -23.5580 -23.5381 -23.4895 -23.4190 -23.3783 -23.3172 -23.2829 -23.2762
   -23.1721 -23.1040 -10.5090  -7.1491  -3.8811  -3.3895  -0.7204   0.5902
     1.4151   2.4422

          k = 0.1667 0.3849 0.0000 ( 20115 PWs)   bands (ev):

   -23.5616 -23.5361 -23.4956 -23.4139 -23.3730 -23.3143 -23.2882 -23.2758
   -23.1789 -23.0966 -10.3104  -7.4943  -4.0709  -3.2381  -0.9463   0.6311
     1.7896   2.3686

          k = 0.1667 0.4330 0.0000 ( 20139 PWs)   bands (ev):

   -23.5646 -23.5335 -23.5015 -23.4084 -23.3708 -23.3124 -23.2930 -23.2720
   -23.1862 -23.0905 -10.0978  -7.8287  -4.2213  -3.0689  -1.1814   0.6306
     2.1576   2.2586

          k = 0.1667 0.4811 0.0000 ( 20145 PWs)   bands (ev):

   -23.5667 -23.5306 -23.5068 -23.4032 -23.3715 -23.3104 -23.2972 -23.2664
   -23.1932 -23.0860  -9.8857  -8.1319  -4.3296  -2.8979  -1.4036   0.6194
     2.1486   2.5038

          k = 0.1667 0.5292 0.0000 ( 20147 PWs)   bands (ev):

   -23.5680 -23.5280 -23.5109 -23.3989 -23.3736 -23.3078 -23.3010 -23.2614
   -23.1988 -23.0832  -9.7073  -8.3664  -4.3948  -2.7557  -1.5781   0.6093
     2.0871   2.7971

          k = 0.1667 0.5774 0.0000 ( 20135 PWs)   bands (ev):

   -23.5685 -23.5267 -23.5126 -23.3970 -23.3749 -23.3052 -23.3039 -23.2593
   -23.2010 -23.0823  -9.6309  -8.4619  -4.4165  -2.6960  -1.6489   0.6054
     2.0660   2.9634

          k = 0.2083 0.3608 0.0000 ( 20119 PWs)   bands (ev):

   -23.5624 -23.5359 -23.4952 -23.4143 -23.3692 -23.3173 -23.2880 -23.2759
   -23.1804 -23.0955 -10.3214  -7.4659  -4.1117  -3.2437  -0.9163   0.9232
     1.5362   2.4114

          k = 0.2083 0.4090 0.0000 ( 20133 PWs)   bands (ev):

   -23.5662 -23.5333 -23.5009 -23.4090 -23.3624 -23.3185 -23.2927 -23.2724
   -23.1893 -23.0882 -10.1151  -7.7832  -4.3055  -3.0737  -1.1359   1.0800
     1.8532   2.2396

          k = 0.2083 0.4571 0.0000 ( 20137 PWs)   bands (ev):

   -23.5693 -23.5304 -23.5060 -23.4034 -23.3594 -23.3183 -23.2972 -23.2671
   -23.1985 -23.0825  -9.8983  -8.0878  -4.4543  -2.8912  -1.3611   1.1260
     2.0655   2.2785

          k = 0.2083 0.5052 0.0000 ( 20163 PWs)   bands (ev):

   -23.5714 -23.5275 -23.5105 -23.3984 -23.3599 -23.3155 -23.3017 -23.2614
   -23.2067 -23.0785  -9.6905  -8.3565  -4.5546  -2.7162  -1.5674   1.1414
     1.9585   2.6493

          k = 0.2083 0.5533 0.0000 ( 20157 PWs)   bands (ev):

   -23.5725 -23.5253 -23.5134 -23.3951 -23.3616 -23.3112 -23.3063 -23.2574
   -23.2120 -23.0764  -9.5422  -8.5360  -4.6049  -2.5930  -1.7070   1.1473
     1.8992   2.9381

          k = 0.2500 0.4330 0.0000 ( 20149 PWs)   bands (ev):

   -23.5702 -23.5303 -23.5058 -23.4035 -23.3532 -23.3230 -23.2972 -23.2674
   -23.2003 -23.0812  -9.9029  -8.0715  -4.4981  -2.8900  -1.3451   1.4453
     2.0213   2.0834

          k = 0.2500 0.4811 0.0000 ( 20153 PWs)   bands (ev):

   -23.5732 -23.5274 -23.5102 -23.3981 -23.3480 -23.3241 -23.3021 -23.2616
   -23.2109 -23.0760  -9.6831  -8.3475  -4.6396  -2.6985  -1.5577   1.6054
     1.9373   2.3905

          k = 0.2500 0.5292 0.0000 ( 20133 PWs)   bands (ev):

   -23.5751 -23.5246 -23.5137 -23.3939 -23.3478 -23.3200 -23.3076 -23.2559
   -23.2196 -23.0727  -9.4819  -8.5833  -4.7258  -2.5245  -1.7455   1.6717
     1.8238   2.7944

          k = 0.2500 0.5774 0.0000 ( 20123 PWs)   bands (ev):

   -23.5757 -23.5232 -23.5154 -23.3923 -23.3485 -23.3139 -23.3135 -23.2532
   -23.2235 -23.0716  -9.3836  -8.6933  -4.7547  -2.4407  -1.8341   1.7174
     1.7565   3.0090

          k = 0.2917 0.5052 0.0000 ( 20137 PWs)   bands (ev):

   -23.5760 -23.5244 -23.5138 -23.3935 -23.3384 -23.3276 -23.3080 -23.2553
   -23.2224 -23.0715  -9.4604  -8.5997  -4.7674  -2.5002  -1.7591   1.7240
     2.1213   2.5559

          k = 0.2917 0.5533 0.0000 ( 20132 PWs)   bands (ev):

   -23.5774 -23.5219 -23.5166 -23.3908 -23.3358 -23.3231 -23.3151 -23.2494
   -23.2314 -23.0692  -9.2636  -8.8113  -4.8325  -2.3272  -1.9337   1.6808
     2.2574   2.8516

          k = 0.3333 0.5774 0.0000 ( 20133 PWs)   bands (ev):

   -23.5782 -23.5193 -23.5193 -23.3896 -23.3258 -23.3240 -23.3237 -23.2413
   -23.2413 -23.0680  -9.0390  -9.0389  -4.8687  -2.1289  -2.1288   1.6477
     2.6868   2.6868

     the Fermi energy is    -2.1288 ev

!    total energy              =    -326.41874805 Ry
     estimated scf accuracy    <       0.00000073 Ry
     smearing contrib. (-TS)   =      -0.00019301 Ry
     internal energy E=F+TS    =    -326.41855504 Ry

     The total energy is F=E-TS. E is the sum of the following terms:
     one-electron contribution =    -856.45948412 Ry
     hartree contribution      =     435.92767026 Ry
     xc contribution           =     -95.00820651 Ry
     ewald contribution        =     189.12146532 Ry

     convergence has been achieved in   7 iterations

     Writing output data file ../tmp/stanene.save/

     init_run     :      6.06s CPU      6.42s WALL (       1 calls)
     electrons    :    122.85s CPU    127.02s WALL (       1 calls)

     Called by init_run:
     wfcinit      :      4.98s CPU      5.21s WALL (       1 calls)
     potinit      :      0.34s CPU      0.35s WALL (       1 calls)
     hinit0       :      0.38s CPU      0.39s WALL (       1 calls)

     Called by electrons:
     c_bands      :    105.48s CPU    107.62s WALL (       7 calls)
     sum_band     :     13.57s CPU     15.00s WALL (       7 calls)
     v_of_rho     :      1.39s CPU      1.45s WALL (       8 calls)
     newd         :      2.45s CPU      3.05s WALL (       8 calls)
     mix_rho      :      0.21s CPU      0.22s WALL (       7 calls)

     Called by c_bands:
     init_us_2    :      0.88s CPU      0.89s WALL (     915 calls)
     cegterg      :    102.18s CPU    104.31s WALL (     427 calls)

     Called by *egterg:
     cdiaghg      :      1.68s CPU      1.69s WALL (    2333 calls)
     h_psi        :     64.67s CPU     66.89s WALL (    2394 calls)
     s_psi        :      4.50s CPU      4.53s WALL (    2394 calls)
     g_psi        :      0.41s CPU      0.41s WALL (    1906 calls)

     Called by h_psi:
     h_psi:calbec :      8.06s CPU      8.30s WALL (    2394 calls)
     vloc_psi     :     51.74s CPU     53.66s WALL (    2394 calls)
     add_vuspsi   :      4.63s CPU      4.69s WALL (    2394 calls)

     General routines
     calbec       :     10.32s CPU     10.66s WALL (    2821 calls)
     fft          :      1.51s CPU      1.56s WALL (     102 calls)
     ffts         :      0.03s CPU      0.04s WALL (      15 calls)
     fftw         :     54.41s CPU     56.49s WALL (   54120 calls)
     interpolate  :      0.12s CPU      0.13s WALL (       8 calls)

     Parallel routines
     fft_scatt_xy :      4.79s CPU      5.09s WALL (   54237 calls)
     fft_scatt_yz :     30.59s CPU     31.42s WALL (   54237 calls)

     PWSCF        :   2m 9.45s CPU   2m14.44s WALL


   This run was terminated on:  22:28:56  23Jan2024            

=------------------------------------------------------------------------------=
   JOB DONE.
=------------------------------------------------------------------------------=
