
     Program PWSCF v.6.7MaX starts on 23Jan2024 at 22:35:45 

     This program is part of the open-source Quantum ESPRESSO suite
     for quantum simulation of materials; please cite
         "P. Giannozzi et al., J. Phys.:Condens. Matter 21 395502 (2009);
         "P. Giannozzi et al., J. Phys.:Condens. Matter 29 465901 (2017);
          URL http://www.quantum-espresso.org", 
     in publications or presentations arising from this work. More details at
     http://www.quantum-espresso.org/quote

     Parallel version (MPI), running on     6 processors

     MPI processes distributed on     1 nodes
     R & G space division:  proc/nbgrp/npool/nimage =       6
     Waiting for input...
     Reading input from standard input

     Current dimensions of program PWSCF are:
     Max number of different atomic species (ntypx) = 10
     Max number of k-points (npk) =  40000
     Max angular momentum in pseudopotentials (lmaxx) =  3

     Subspace diagonalization in iterative solution of the eigenvalue problem:
     one sub-group per band group will be used
     scalapack distributed-memory algorithm (size of sub-group:  2*  2 procs)


     Parallelization info
     --------------------
     sticks:   dense  smooth     PW     G-vecs:    dense   smooth      PW
     Min         431     214     61                75909    26818    4015
     Max         432     215     62                75924    26841    4025
     Sum        2587    1285    367               455489   160939   24117



     bravais-lattice index     =            4
     lattice parameter (alat)  =       8.8506  a.u.
     unit-cell volume          =    2563.9136 (a.u.)^3
     number of atoms/cell      =            2
     number of atomic types    =            1
     number of electrons       =        28.00
     number of Kohn-Sham states=           18
     kinetic-energy cutoff     =      60.0000  Ry
     charge density cutoff     =     480.0000  Ry
     scf convergence threshold =      1.0E-06
     mixing beta               =       0.7000
     number of iterations used =            8  plain     mixing
     Exchange-correlation= SLA  PW   PBE  PBE
                           (   1   4   3   4   0   0   0)

     celldm(1)=   8.850584  celldm(2)=   0.000000  celldm(3)=   4.270286
     celldm(4)=   0.000000  celldm(5)=   0.000000  celldm(6)=   0.000000

     crystal axes: (cart. coord. in units of alat)
               a(1) = (   1.000000   0.000000   0.000000 )  
               a(2) = (  -0.500000   0.866025   0.000000 )  
               a(3) = (   0.000000   0.000000   4.270286 )  

     reciprocal axes: (cart. coord. in units 2 pi/alat)
               b(1) = (  1.000000  0.577350 -0.000000 )  
               b(2) = (  0.000000  1.154701  0.000000 )  
               b(3) = (  0.000000 -0.000000  0.234176 )  


     PseudoPot. # 1 for Sn read from file:
     ../pseudo/Sn_pbe_v1.uspp.F.UPF
     MD5 check sum: 4cf58ce39ec5d5d420df3dd08604eb00
     Pseudo is Ultrasoft + core correction, Zval = 14.0
     Generated by new atomic code, or converted to UPF format
     Using radial grid of  891 points,  6 beta functions with: 
                l(1) =   0
                l(2) =   0
                l(3) =   1
                l(4) =   1
                l(5) =   2
                l(6) =   2
     Q(r) pseudized with  6 coefficients,  rinner =    1.200   1.200   1.200
                                                       1.200   1.200

     atomic species   valence    mass     pseudopotential
        Sn            14.00   118.71000     Sn( 1.00)

      6 Sym. Ops. (no inversion) found



   Cartesian axes

     site n.     atom                  positions (alat units)
         1           Sn  tau(   1) = (   0.0000000   0.5773503   2.1351428  )
         2           Sn  tau(   2) = (   0.5000000   0.2886751   1.9552503  )

     number of k points=    61  Fermi-Dirac smearing, width (Ry)=  0.0250
                       cart. coord. in units 2pi/alat
        k(    1) = (   0.0000000   0.0000000   0.0000000), wk =   0.0034722
        k(    2) = (   0.0000000   0.0481125   0.0000000), wk =   0.0208333
        k(    3) = (   0.0000000   0.0962250   0.0000000), wk =   0.0208333
        k(    4) = (   0.0000000   0.1443376   0.0000000), wk =   0.0208333
        k(    5) = (   0.0000000   0.1924501   0.0000000), wk =   0.0208333
        k(    6) = (   0.0000000   0.2405626   0.0000000), wk =   0.0208333
        k(    7) = (   0.0000000   0.2886751   0.0000000), wk =   0.0208333
        k(    8) = (   0.0000000   0.3367877   0.0000000), wk =   0.0208333
        k(    9) = (   0.0000000   0.3849002   0.0000000), wk =   0.0208333
        k(   10) = (   0.0000000   0.4330127   0.0000000), wk =   0.0208333
        k(   11) = (   0.0000000   0.4811252   0.0000000), wk =   0.0208333
        k(   12) = (   0.0000000   0.5292377   0.0000000), wk =   0.0208333
        k(   13) = (   0.0000000  -0.5773503   0.0000000), wk =   0.0104167
        k(   14) = (   0.0416667   0.0721688   0.0000000), wk =   0.0208333
        k(   15) = (   0.0416667   0.1202813   0.0000000), wk =   0.0416667
        k(   16) = (   0.0416667   0.1683938   0.0000000), wk =   0.0416667
        k(   17) = (   0.0416667   0.2165064   0.0000000), wk =   0.0416667
        k(   18) = (   0.0416667   0.2646189   0.0000000), wk =   0.0416667
        k(   19) = (   0.0416667   0.3127314   0.0000000), wk =   0.0416667
        k(   20) = (   0.0416667   0.3608439   0.0000000), wk =   0.0416667
        k(   21) = (   0.0416667   0.4089564   0.0000000), wk =   0.0416667
        k(   22) = (   0.0416667   0.4570690   0.0000000), wk =   0.0416667
        k(   23) = (   0.0416667   0.5051815   0.0000000), wk =   0.0416667
        k(   24) = (   0.0416667   0.5532940   0.0000000), wk =   0.0416667
        k(   25) = (   0.0833333   0.1443376   0.0000000), wk =   0.0208333
        k(   26) = (   0.0833333   0.1924501   0.0000000), wk =   0.0416667
        k(   27) = (   0.0833333   0.2405626   0.0000000), wk =   0.0416667
        k(   28) = (   0.0833333   0.2886751   0.0000000), wk =   0.0416667
        k(   29) = (   0.0833333   0.3367877   0.0000000), wk =   0.0416667
        k(   30) = (   0.0833333   0.3849002   0.0000000), wk =   0.0416667
        k(   31) = (   0.0833333   0.4330127   0.0000000), wk =   0.0416667
        k(   32) = (   0.0833333   0.4811252   0.0000000), wk =   0.0416667
        k(   33) = (   0.0833333   0.5292377   0.0000000), wk =   0.0416667
        k(   34) = (   0.0833333   0.5773503   0.0000000), wk =   0.0208333
        k(   35) = (   0.1250000   0.2165064   0.0000000), wk =   0.0208333
        k(   36) = (   0.1250000   0.2646189   0.0000000), wk =   0.0416667
        k(   37) = (   0.1250000   0.3127314   0.0000000), wk =   0.0416667
        k(   38) = (   0.1250000   0.3608439   0.0000000), wk =   0.0416667
        k(   39) = (   0.1250000   0.4089564   0.0000000), wk =   0.0416667
        k(   40) = (   0.1250000   0.4570690   0.0000000), wk =   0.0416667
        k(   41) = (   0.1250000   0.5051815   0.0000000), wk =   0.0416667
        k(   42) = (   0.1250000   0.5532940   0.0000000), wk =   0.0416667
        k(   43) = (   0.1666667   0.2886751   0.0000000), wk =   0.0208333
        k(   44) = (   0.1666667   0.3367877   0.0000000), wk =   0.0416667
        k(   45) = (   0.1666667   0.3849002   0.0000000), wk =   0.0416667
        k(   46) = (   0.1666667   0.4330127   0.0000000), wk =   0.0416667
        k(   47) = (   0.1666667   0.4811252   0.0000000), wk =   0.0416667
        k(   48) = (   0.1666667   0.5292377   0.0000000), wk =   0.0416667
        k(   49) = (   0.1666667   0.5773503   0.0000000), wk =   0.0208333
        k(   50) = (   0.2083333   0.3608439   0.0000000), wk =   0.0208333
        k(   51) = (   0.2083333   0.4089564   0.0000000), wk =   0.0416667
        k(   52) = (   0.2083333   0.4570690   0.0000000), wk =   0.0416667
        k(   53) = (   0.2083333   0.5051815   0.0000000), wk =   0.0416667
        k(   54) = (   0.2083333   0.5532940   0.0000000), wk =   0.0416667
        k(   55) = (   0.2500000   0.4330127   0.0000000), wk =   0.0208333
        k(   56) = (   0.2500000   0.4811252   0.0000000), wk =   0.0416667
        k(   57) = (   0.2500000   0.5292377   0.0000000), wk =   0.0416667
        k(   58) = (   0.2500000   0.5773503   0.0000000), wk =   0.0208333
        k(   59) = (   0.2916667   0.5051815   0.0000000), wk =   0.0208333
        k(   60) = (   0.2916667   0.5532940   0.0000000), wk =   0.0416667
        k(   61) = (   0.3333333   0.5773503   0.0000000), wk =   0.0069444

     Dense  grid:   455489 G-vectors     FFT dimensions: (  64,  64, 270)

     Smooth grid:   160939 G-vectors     FFT dimensions: (  45,  45, 192)

     Estimated max dynamical RAM per process >     322.30 MB

     Estimated total dynamical RAM >       1.89 GB

     Initial potential from superposition of free atoms

     starting charge   25.99991, renormalised to   28.00000

     negative rho (up, down):  5.949E-04 0.000E+00
     Starting wfcs are   18 randomized atomic wfcs

     total cpu time spent up to now is        6.3 secs

     Self-consistent Calculation

     iteration #  1     ecut=    60.00 Ry     beta= 0.70
     Davidson diagonalization with overlap
     ethr =  1.00E-02,  avg # of iterations =  8.8

     total cpu time spent up to now is       29.0 secs

     total energy              =    -325.42643963 Ry
     estimated scf accuracy    <       2.52473412 Ry

     iteration #  2     ecut=    60.00 Ry     beta= 0.70
     Davidson diagonalization with overlap
     ethr =  9.02E-03,  avg # of iterations =  2.5

     total cpu time spent up to now is       47.8 secs

     total energy              =    -326.36086351 Ry
     estimated scf accuracy    <       0.43154041 Ry

     iteration #  3     ecut=    60.00 Ry     beta= 0.70
     Davidson diagonalization with overlap
     ethr =  1.54E-03,  avg # of iterations =  2.1

     total cpu time spent up to now is       67.7 secs

     total energy              =    -326.42668280 Ry
     estimated scf accuracy    <       0.00755117 Ry

     iteration #  4     ecut=    60.00 Ry     beta= 0.70
     Davidson diagonalization with overlap
     ethr =  2.70E-05,  avg # of iterations =  8.6

     negative rho (up, down):  5.327E-05 0.000E+00

     total cpu time spent up to now is       90.6 secs

     total energy              =    -326.42890725 Ry
     estimated scf accuracy    <       0.00022152 Ry

     iteration #  5     ecut=    60.00 Ry     beta= 0.70
     Davidson diagonalization with overlap
     ethr =  7.91E-07,  avg # of iterations =  6.2

     negative rho (up, down):  7.147E-05 0.000E+00

     total cpu time spent up to now is      107.9 secs

     total energy              =    -326.42891093 Ry
     estimated scf accuracy    <       0.00002578 Ry

     iteration #  6     ecut=    60.00 Ry     beta= 0.70
     Davidson diagonalization with overlap
     ethr =  9.21E-08,  avg # of iterations =  3.1

     negative rho (up, down):  7.741E-05 0.000E+00

     total cpu time spent up to now is      124.9 secs

     total energy              =    -326.42891459 Ry
     estimated scf accuracy    <       0.00002972 Ry

     iteration #  7     ecut=    60.00 Ry     beta= 0.70
     Davidson diagonalization with overlap
     ethr =  9.21E-08,  avg # of iterations =  2.0

     negative rho (up, down):  8.358E-05 0.000E+00

     total cpu time spent up to now is      138.9 secs

     End of self-consistent calculation

          k = 0.0000 0.0000 0.0000 ( 20025 PWs)   bands (ev):

   -23.5908 -23.5908 -23.5082 -23.5082 -23.4837 -23.4130 -23.2835 -23.2835
   -23.2315 -23.2315 -11.4389  -5.3128  -2.4731  -2.4731  -2.0028  -0.0878
     1.0269   1.0269

          k = 0.0000 0.0481 0.0000 ( 20035 PWs)   bands (ev):

   -23.5917 -23.5916 -23.5086 -23.5069 -23.4827 -23.4119 -23.2860 -23.2858
   -23.2301 -23.2293 -11.4242  -5.3367  -2.7580  -2.5056  -1.6989  -0.0870
     0.9976   1.0827

          k = 0.0000 0.0962 0.0000 ( 20005 PWs)   bands (ev):

   -23.5940 -23.5938 -23.5101 -23.5033 -23.4797 -23.4087 -23.2923 -23.2917
   -23.2268 -23.2236 -11.3801  -5.4167  -3.1410  -2.5961  -1.2643  -0.0878
     0.9441   1.2423

          k = 0.0000 0.1443 0.0000 ( 20065 PWs)   bands (ev):

   -23.5972 -23.5966 -23.5129 -23.4980 -23.4753 -23.4035 -23.3006 -23.2996
   -23.2229 -23.2163 -11.3070  -5.5737  -3.4462  -2.7278  -0.9007  -0.0994
     0.9513   1.4857

          k = 0.0000 0.1925 0.0000 ( 20113 PWs)   bands (ev):

   -23.6009 -23.5995 -23.5171 -23.4917 -23.4704 -23.3962 -23.3097 -23.3080
   -23.2196 -23.2086 -11.2053  -5.8227  -3.6362  -2.8818  -0.6993  -0.1251
     1.1009   1.7877

          k = 0.0000 0.2406 0.0000 ( 20071 PWs)   bands (ev):

   -23.6046 -23.6017 -23.5222 -23.4850 -23.4663 -23.3872 -23.3188 -23.3161
   -23.2175 -23.2010 -11.0759  -6.1533  -3.7122  -3.0422  -0.6836  -0.1589
     1.3692   2.2781

          k = 0.0000 0.2887 0.0000 ( 20087 PWs)   bands (ev):

   -23.6080 -23.6028 -23.5281 -23.4783 -23.4635 -23.3770 -23.3274 -23.3228
   -23.2167 -23.1939 -10.9202  -6.5352  -3.6995  -3.1972  -0.7846  -0.2130
     1.6195   2.4567

          k = 0.0000 0.3368 0.0000 ( 20109 PWs)   bands (ev):

   -23.6110 -23.6028 -23.5346 -23.4721 -23.4621 -23.3666 -23.3353 -23.3275
   -23.2174 -23.1877 -10.7406  -6.9374  -3.6264  -3.3383  -0.9341  -0.2995
     1.7837   2.6637

          k = 0.0000 0.3849 0.0000 ( 20145 PWs)   bands (ev):

   -23.6134 -23.6015 -23.5415 -23.4668 -23.4621 -23.3577 -23.3420 -23.3290
   -23.2195 -23.1823 -10.5415  -7.3358  -3.5154  -3.4597  -1.0998  -0.4098
     1.9192   2.8790

          k = 0.0000 0.4330 0.0000 ( 20161 PWs)   bands (ev):

   -23.6152 -23.5991 -23.5484 -23.4628 -23.4625 -23.3523 -23.3474 -23.3262
   -23.2225 -23.1781 -10.3309  -7.7101  -3.5576  -3.3861  -1.2661  -0.5226
     2.0687   3.0960

          k = 0.0000 0.4811 0.0000 ( 20157 PWs)   bands (ev):

   -23.6165 -23.5960 -23.5548 -23.4638 -23.4593 -23.3514 -23.3504 -23.3206
   -23.2258 -23.1750 -10.1256  -8.0365  -3.6292  -3.2598  -1.4174  -0.6166
     2.2330   3.2714

          k = 0.0000 0.5292 0.0000 ( 20142 PWs)   bands (ev):

   -23.6173 -23.5930 -23.5597 -23.4645 -23.4574 -23.3538 -23.3500 -23.3156
   -23.2285 -23.1731  -9.9602  -8.2760  -3.6728  -3.1635  -1.5290  -0.6774
     2.3817   3.3258

          k = 0.0000-0.5774 0.0000 ( 20152 PWs)   bands (ev):

   -23.6175 -23.5917 -23.5617 -23.4648 -23.4568 -23.3546 -23.3500 -23.3136
   -23.2295 -23.1725  -9.8926  -8.3685  -3.6874  -3.1265  -1.5711  -0.6983
     2.4480   3.3449

          k = 0.0417 0.0722 0.0000 ( 20017 PWs)   bands (ev):

   -23.5933 -23.5931 -23.5095 -23.5046 -23.4806 -23.4098 -23.2904 -23.2898
   -23.2279 -23.2252 -11.3948  -5.3886  -3.0414  -2.5714  -1.3742  -0.0870
     0.9465   1.1991

          k = 0.0417 0.1203 0.0000 ( 20039 PWs)   bands (ev):

   -23.5962 -23.5954 -23.5115 -23.5005 -23.4767 -23.4056 -23.2977 -23.2965
   -23.2247 -23.2186 -11.3362  -5.5075  -3.3450  -2.6924  -0.9933  -0.0942
     0.8952   1.4212

          k = 0.0417 0.1684 0.0000 ( 20081 PWs)   bands (ev):

   -23.6000 -23.5979 -23.5150 -23.4950 -23.4716 -23.3995 -23.3062 -23.3045
   -23.2216 -23.2109 -11.2487  -5.7122  -3.5683  -2.8463  -0.6977  -0.1174
     0.9371   1.7173

          k = 0.0417 0.2165 0.0000 ( 20075 PWs)   bands (ev):

   -23.6039 -23.6001 -23.5197 -23.4888 -23.4666 -23.3916 -23.3150 -23.3128
   -23.2194 -23.2030 -11.1331  -6.0044  -3.6849  -3.0132  -0.5820  -0.1473
     1.1322   2.0386

          k = 0.0417 0.2646 0.0000 ( 20107 PWs)   bands (ev):

   -23.6077 -23.6016 -23.5254 -23.4824 -23.4624 -23.3823 -23.3237 -23.3201
   -23.2183 -23.1955 -10.9904  -6.3618  -3.7070  -3.1775  -0.6404  -0.1763
     1.4203   2.2572

          k = 0.0417 0.3127 0.0000 ( 20105 PWs)   bands (ev):

   -23.6110 -23.6019 -23.5316 -23.4764 -23.4596 -23.3723 -23.3317 -23.3258
   -23.2187 -23.1886 -10.8225  -6.7533  -3.6631  -3.3259  -0.7852  -0.2293
     1.6711   2.4635

          k = 0.0417 0.3608 0.0000 ( 20127 PWs)   bands (ev):

   -23.6139 -23.6011 -23.5383 -23.4712 -23.4582 -23.3629 -23.3388 -23.3288
   -23.2205 -23.1827 -10.6325  -7.1526  -3.5976  -3.4300  -0.9617  -0.3116
     1.8454   2.6979

          k = 0.0417 0.4090 0.0000 ( 20135 PWs)   bands (ev):

   -23.6161 -23.5992 -23.5452 -23.4670 -23.4577 -23.3561 -23.3446 -23.3279
   -23.2234 -23.1777 -10.4261  -7.5386  -3.6257  -3.3895  -1.1473  -0.4076
     1.9978   2.8818

          k = 0.0417 0.4571 0.0000 ( 20146 PWs)   bands (ev):

   -23.6177 -23.5963 -23.5519 -23.4643 -23.4574 -23.3534 -23.3486 -23.3233
   -23.2270 -23.1739 -10.2150  -7.8907  -3.6992  -3.2684  -1.3261  -0.4970
     2.1572   3.0036

          k = 0.0417 0.5052 0.0000 ( 20148 PWs)   bands (ev):

   -23.6188 -23.5932 -23.5577 -23.4631 -23.4569 -23.3539 -23.3502 -23.3176
   -23.2304 -23.1713 -10.0231  -8.1791  -3.7547  -3.1521  -1.4759  -0.5639
     2.3114   3.0897

          k = 0.0417 0.5533 0.0000 ( 20150 PWs)   bands (ev):

   -23.6193 -23.5909 -23.5613 -23.4629 -23.4565 -23.3549 -23.3505 -23.3139
   -23.2325 -23.1700  -9.8980  -8.3532  -3.7835  -3.0795  -1.5650  -0.5992
     2.4151   3.1880

          k = 0.0833 0.1443 0.0000 ( 20061 PWs)   bands (ev):

   -23.5997 -23.5973 -23.5141 -23.4966 -23.4718 -23.4007 -23.3050 -23.3032
   -23.2228 -23.2114 -11.2633  -5.6754  -3.5338  -2.8504  -0.6703  -0.1177
     0.8398   1.7189

          k = 0.0833 0.1925 0.0000 ( 20087 PWs)   bands (ev):

   -23.6039 -23.5990 -23.5181 -23.4918 -23.4658 -23.3942 -23.3131 -23.3107
   -23.2214 -23.2033 -11.1618  -5.9267  -3.6514  -3.0373  -0.4135  -0.1627
     0.8790   2.0673

          k = 0.0833 0.2406 0.0000 ( 20121 PWs)   bands (ev):

   -23.6082 -23.6001 -23.5233 -23.4863 -23.4599 -23.3864 -23.3212 -23.3182
   -23.2210 -23.1952 -11.0328  -6.2487  -3.6890  -3.2267  -0.3971  -0.1438
     1.0791   2.2221

          k = 0.0833 0.2887 0.0000 ( 20106 PWs)   bands (ev):

   -23.6122 -23.6004 -23.5294 -23.4808 -23.4550 -23.3779 -23.3289 -23.3243
   -23.2219 -23.1876 -10.8774  -6.6157  -3.6678  -3.3946  -0.5549  -0.1118
     1.3887   2.3003

          k = 0.0833 0.3368 0.0000 ( 20114 PWs)   bands (ev):

   -23.6157 -23.5996 -23.5359 -23.4755 -23.4518 -23.3695 -23.3359 -23.3281
   -23.2241 -23.1806 -10.6981  -7.0024  -3.6651  -3.4728  -0.7581  -0.1302
     1.6901   2.4417

          k = 0.0833 0.3849 0.0000 ( 20126 PWs)   bands (ev):

   -23.6186 -23.5979 -23.5427 -23.4706 -23.4502 -23.3628 -23.3418 -23.3285
   -23.2275 -23.1747 -10.4989  -7.3876  -3.7613  -3.3918  -0.9772  -0.1790
     1.9191   2.6000

          k = 0.0833 0.4330 0.0000 ( 20149 PWs)   bands (ev):

   -23.6209 -23.5952 -23.5494 -23.4664 -23.4502 -23.3588 -23.3465 -23.3251
   -23.2317 -23.1699 -10.2877  -7.7522  -3.8631  -3.2575  -1.1956  -0.2378
     2.0985   2.7022

          k = 0.0833 0.4811 0.0000 ( 20151 PWs)   bands (ev):

   -23.6225 -23.5920 -23.5556 -23.4626 -23.4514 -23.3572 -23.3498 -23.3196
   -23.2361 -23.1664 -10.0807  -8.0730  -3.9406  -3.1175  -1.3933  -0.2904
     2.2432   2.7925

          k = 0.0833 0.5292 0.0000 ( 20157 PWs)   bands (ev):

   -23.6234 -23.5891 -23.5603 -23.4593 -23.4535 -23.3567 -23.3517 -23.3147
   -23.2396 -23.1643  -9.9124  -8.3112  -3.9883  -3.0057  -1.5398  -0.3258
     2.3327   2.9297

          k = 0.0833 0.5774 0.0000 ( 20154 PWs)   bands (ev):

   -23.6237 -23.5877 -23.5623 -23.4571 -23.4553 -23.3566 -23.3524 -23.3128
   -23.2409 -23.1636  -9.8430  -8.4041  -4.0043  -2.9614  -1.5958  -0.3382
     2.3601   3.0498

          k = 0.1250 0.2165 0.0000 ( 20099 PWs)   bands (ev):

   -23.6084 -23.5996 -23.5225 -23.4879 -23.4587 -23.3880 -23.3204 -23.3174
   -23.2221 -23.1949 -11.0469  -6.2092  -3.6744  -3.2594  -0.2627  -0.1146
     0.8837   2.2384

          k = 0.1250 0.2646 0.0000 ( 20119 PWs)   bands (ev):

   -23.6129 -23.5995 -23.5281 -23.4833 -23.4518 -23.3815 -23.3274 -23.3235
   -23.2241 -23.1866 -10.9050  -6.5412  -3.6451  -3.4747  -0.4096   0.0820
     1.0454   2.2837

          k = 0.1250 0.3127 0.0000 ( 20122 PWs)   bands (ev):

   -23.6172 -23.5985 -23.5343 -23.4783 -23.4459 -23.3753 -23.3340 -23.3276
   -23.2272 -23.1787 -10.7377  -6.9019  -3.7092  -3.5295  -0.6059   0.1557
     1.3595   2.3441

          k = 0.1250 0.3608 0.0000 ( 20112 PWs)   bands (ev):

   -23.6210 -23.5966 -23.5409 -23.4732 -23.4421 -23.3702 -23.3398 -23.3286
   -23.2316 -23.1716 -10.5481  -7.2722  -3.8794  -3.4133  -0.8316   0.1594
     1.7151   2.4031

          k = 0.1250 0.4090 0.0000 ( 20146 PWs)   bands (ev):

   -23.6242 -23.5940 -23.5475 -23.4682 -23.4406 -23.3664 -23.3449 -23.3261
   -23.2368 -23.1657 -10.3413  -7.6350  -4.0239  -3.2652  -1.0687   0.1348
     2.0164   2.4250

          k = 0.1250 0.4571 0.0000 ( 20145 PWs)   bands (ev):

   -23.6265 -23.5908 -23.5538 -23.4633 -23.4415 -23.3637 -23.3491 -23.3212
   -23.2424 -23.1611 -10.1280  -7.9714  -4.1344  -3.1054  -1.2981   0.1027
     2.1952   2.4909

          k = 0.1250 0.5052 0.0000 ( 20141 PWs)   bands (ev):

   -23.6281 -23.5874 -23.5591 -23.4586 -23.4441 -23.3615 -23.3525 -23.3158
   -23.2476 -23.1579  -9.9312  -8.2531  -4.2087  -2.9581  -1.4936   0.0750
     2.2257   2.6887

          k = 0.1250 0.5533 0.0000 ( 20145 PWs)   bands (ev):

   -23.6289 -23.5850 -23.5625 -23.4545 -23.4473 -23.3595 -23.3551 -23.3123
   -23.2508 -23.1563  -9.7999  -8.4275  -4.2460  -2.8625  -1.6137   0.0595
     2.2188   2.9078

          k = 0.1667 0.2887 0.0000 ( 20113 PWs)   bands (ev):

   -23.6178 -23.5981 -23.5338 -23.4793 -23.4435 -23.3777 -23.3333 -23.3274
   -23.2284 -23.1779 -10.7510  -6.8663  -3.7251  -3.5533  -0.5570   0.3699
     1.1146   2.3532

          k = 0.1667 0.3368 0.0000 ( 20110 PWs)   bands (ev):

   -23.6224 -23.5960 -23.5400 -23.4746 -23.4363 -23.3754 -23.3388 -23.3285
   -23.2339 -23.1698 -10.5728  -7.2089  -3.9481  -3.4296  -0.7557   0.5286
     1.3707   2.4133

          k = 0.1667 0.3849 0.0000 ( 20115 PWs)   bands (ev):

   -23.6264 -23.5932 -23.5463 -23.4695 -23.4316 -23.3741 -23.3438 -23.3265
   -23.2404 -23.1627 -10.3741  -7.5551  -4.1379  -3.2775  -0.9822   0.5701
     1.7507   2.3347

          k = 0.1667 0.4330 0.0000 ( 20139 PWs)   bands (ev):

   -23.6297 -23.5899 -23.5524 -23.4641 -23.4301 -23.3723 -23.3485 -23.3222
   -23.2474 -23.1569 -10.1615  -7.8902  -4.2881  -3.1078  -1.2175   0.5692
     2.1301   2.2215

          k = 0.1667 0.4811 0.0000 ( 20145 PWs)   bands (ev):

   -23.6322 -23.5864 -23.5580 -23.4586 -23.4316 -23.3694 -23.3528 -23.3169
   -23.2543 -23.1525  -9.9492  -8.1939  -4.3964  -2.9365  -1.4397   0.5575
     2.1155   2.4798

          k = 0.1667 0.5292 0.0000 ( 20147 PWs)   bands (ev):

   -23.6336 -23.5833 -23.5623 -23.4538 -23.4348 -23.3656 -23.3569 -23.3122
   -23.2598 -23.1499  -9.7707  -8.4288  -4.4616  -2.7942  -1.6141   0.5469
     2.0537   2.7769

          k = 0.1667 0.5774 0.0000 ( 20135 PWs)   bands (ev):

   -23.6341 -23.5819 -23.5641 -23.4515 -23.4367 -23.3624 -23.3602 -23.3102
   -23.2620 -23.1490  -9.6942  -8.5244  -4.4833  -2.7346  -1.6848   0.5428
     2.0325   2.9435

          k = 0.2083 0.3608 0.0000 ( 20119 PWs)   bands (ev):

   -23.6272 -23.5929 -23.5459 -23.4699 -23.4275 -23.3777 -23.3435 -23.3266
   -23.2417 -23.1617 -10.3851  -7.5266  -4.1789  -3.2828  -0.9519   0.8611
     1.4920   2.3766

          k = 0.2083 0.4090 0.0000 ( 20133 PWs)   bands (ev):

   -23.6315 -23.5895 -23.5517 -23.4645 -23.4210 -23.3798 -23.3482 -23.3227
   -23.2501 -23.1546 -10.1787  -7.8446  -4.3727  -3.1122  -1.1718   1.0187
     1.8105   2.2045

          k = 0.2083 0.4571 0.0000 ( 20137 PWs)   bands (ev):

   -23.6348 -23.5858 -23.5572 -23.4587 -23.4188 -23.3792 -23.3529 -23.3176
   -23.2587 -23.1490  -9.9618  -8.1497  -4.5214  -2.9293  -1.3972   1.0648
     2.0288   2.2446

          k = 0.2083 0.5052 0.0000 ( 20163 PWs)   bands (ev):

   -23.6372 -23.5823 -23.5619 -23.4533 -23.4206 -23.3750 -23.3579 -23.3123
   -23.2663 -23.1452  -9.7538  -8.4188  -4.6217  -2.7541  -1.6035   1.0795
     1.9233   2.6227

          k = 0.2083 0.5533 0.0000 ( 20157 PWs)   bands (ev):

   -23.6384 -23.5797 -23.5650 -23.4495 -23.4233 -23.3693 -23.3634 -23.3086
   -23.2714 -23.1432  -9.6054  -8.5985  -4.6720  -2.6309  -1.7431   1.0847
     1.8645   2.9158

          k = 0.2500 0.4330 0.0000 ( 20149 PWs)   bands (ev):

   -23.6358 -23.5856 -23.5569 -23.4588 -23.4116 -23.3852 -23.3530 -23.3178
   -23.2601 -23.1478  -9.9664  -8.1333  -4.5653  -2.9279  -1.3811   1.3851
     1.9773   2.0459

          k = 0.2500 0.4811 0.0000 ( 20153 PWs)   bands (ev):

   -23.6390 -23.5819 -23.5616 -23.4530 -23.4071 -23.3860 -23.3584 -23.3125
   -23.2697 -23.1427  -9.7465  -8.4098  -4.7069  -2.7361  -1.5938   1.5482
     1.8974   2.3489

          k = 0.2500 0.5292 0.0000 ( 20133 PWs)   bands (ev):

   -23.6411 -23.5785 -23.5654 -23.4483 -23.4087 -23.3801 -23.3648 -23.3075
   -23.2776 -23.1396  -9.5452  -8.6458  -4.7931  -2.5619  -1.7817   1.6156
     1.7829   2.7592

          k = 0.2500 0.5774 0.0000 ( 20123 PWs)   bands (ev):

   -23.6418 -23.5769 -23.5672 -23.4464 -23.4102 -23.3731 -23.3713 -23.3051
   -23.2810 -23.1385  -9.4467  -8.7560  -4.8220  -2.4780  -1.8703   1.6552
     1.7216   2.9776

          k = 0.2917 0.5052 0.0000 ( 20137 PWs)   bands (ev):

   -23.6420 -23.5782 -23.5655 -23.4479 -23.3967 -23.3907 -23.3652 -23.3071
   -23.2797 -23.1383  -9.5236  -8.6622  -4.8348  -2.5374  -1.7954   1.6870
     2.0612   2.5096

          k = 0.2917 0.5533 0.0000 ( 20132 PWs)   bands (ev):

   -23.6436 -23.5751 -23.5687 -23.4447 -23.3966 -23.3837 -23.3734 -23.3020
   -23.2874 -23.1361  -9.3266  -8.8740  -4.8999  -2.3642  -1.9702   1.6457
     2.1963   2.8034

          k = 0.3333 0.5774 0.0000 ( 20133 PWs)   bands (ev):

   -23.6444 -23.5719 -23.5719 -23.4434 -23.3866 -23.3860 -23.3812 -23.2955
   -23.2954 -23.1349  -9.1019  -9.1017  -4.9361  -2.1657  -2.1654   1.6127
     2.6286   2.6288

     the Fermi energy is    -2.1350 ev

!    total energy              =    -326.42891921 Ry
     estimated scf accuracy    <       0.00000033 Ry
     smearing contrib. (-TS)   =      -0.02892241 Ry
     internal energy E=F+TS    =    -326.39999680 Ry

     The total energy is F=E-TS. E is the sum of the following terms:
     one-electron contribution =    -856.31597391 Ry
     hartree contribution      =     435.79960205 Ry
     xc contribution           =     -95.00509025 Ry
     ewald contribution        =     189.12146532 Ry

     convergence has been achieved in   7 iterations

     Writing output data file ../tmp/stanene.save/

     init_run     :      5.88s CPU      6.20s WALL (       1 calls)
     electrons    :    127.60s CPU    132.66s WALL (       1 calls)

     Called by init_run:
     wfcinit      :      4.74s CPU      4.98s WALL (       1 calls)
     potinit      :      0.35s CPU      0.38s WALL (       1 calls)
     hinit0       :      0.39s CPU      0.39s WALL (       1 calls)

     Called by electrons:
     c_bands      :    108.71s CPU    111.84s WALL (       7 calls)
     sum_band     :     14.09s CPU     15.15s WALL (       7 calls)
     v_of_rho     :      1.66s CPU      1.79s WALL (       8 calls)
     newd         :      2.84s CPU      3.59s WALL (       8 calls)
     mix_rho      :      0.31s CPU      0.32s WALL (       7 calls)

     Called by c_bands:
     init_us_2    :      0.86s CPU      0.87s WALL (     915 calls)
     cegterg      :    105.29s CPU    108.39s WALL (     427 calls)

     Called by *egterg:
     cdiaghg      :      1.76s CPU      1.78s WALL (    2456 calls)
     h_psi        :     65.76s CPU     68.80s WALL (    2517 calls)
     s_psi        :      4.75s CPU      4.79s WALL (    2517 calls)
     g_psi        :      0.42s CPU      0.43s WALL (    2029 calls)

     Called by h_psi:
     h_psi:calbec :      8.21s CPU      8.48s WALL (    2517 calls)
     vloc_psi     :     52.54s CPU     55.22s WALL (    2517 calls)
     add_vuspsi   :      4.77s CPU      4.86s WALL (    2517 calls)

     General routines
     calbec       :     10.53s CPU     10.86s WALL (    2944 calls)
     fft          :      2.03s CPU      2.09s WALL (     102 calls)
     ffts         :      0.06s CPU      0.06s WALL (      15 calls)
     fftw         :     55.32s CPU     57.88s WALL (   55038 calls)
     interpolate  :      0.24s CPU      0.25s WALL (       8 calls)

     Parallel routines
     fft_scatt_xy :      5.05s CPU      5.41s WALL (   55155 calls)
     fft_scatt_yz :     30.86s CPU     31.86s WALL (   55155 calls)

     PWSCF        :   2m13.65s CPU   2m19.60s WALL


   This run was terminated on:  22:38: 5  23Jan2024            

=------------------------------------------------------------------------------=
   JOB DONE.
=------------------------------------------------------------------------------=
