
     Program PWSCF v.6.7MaX starts on 23Jan2024 at 22:38: 5 

     This program is part of the open-source Quantum ESPRESSO suite
     for quantum simulation of materials; please cite
         "P. Giannozzi et al., J. Phys.:Condens. Matter 21 395502 (2009);
         "P. Giannozzi et al., J. Phys.:Condens. Matter 29 465901 (2017);
          URL http://www.quantum-espresso.org", 
     in publications or presentations arising from this work. More details at
     http://www.quantum-espresso.org/quote

     Parallel version (MPI), running on     6 processors

     MPI processes distributed on     1 nodes
     R & G space division:  proc/nbgrp/npool/nimage =       6
     Waiting for input...
     Reading input from standard input

     Current dimensions of program PWSCF are:
     Max number of different atomic species (ntypx) = 10
     Max number of k-points (npk) =  40000
     Max angular momentum in pseudopotentials (lmaxx) =  3

     Subspace diagonalization in iterative solution of the eigenvalue problem:
     one sub-group per band group will be used
     scalapack distributed-memory algorithm (size of sub-group:  2*  2 procs)


     Parallelization info
     --------------------
     sticks:   dense  smooth     PW     G-vecs:    dense   smooth      PW
     Min         431     214     61                75909    26818    4015
     Max         432     215     62                75924    26841    4025
     Sum        2587    1285    367               455489   160939   24117



     bravais-lattice index     =            4
     lattice parameter (alat)  =       8.8506  a.u.
     unit-cell volume          =    2563.9136 (a.u.)^3
     number of atoms/cell      =            2
     number of atomic types    =            1
     number of electrons       =        28.00
     number of Kohn-Sham states=           18
     kinetic-energy cutoff     =      60.0000  Ry
     charge density cutoff     =     480.0000  Ry
     scf convergence threshold =      1.0E-06
     mixing beta               =       0.7000
     number of iterations used =            8  plain     mixing
     Exchange-correlation= SLA  PW   PBE  PBE
                           (   1   4   3   4   0   0   0)

     celldm(1)=   8.850584  celldm(2)=   0.000000  celldm(3)=   4.270286
     celldm(4)=   0.000000  celldm(5)=   0.000000  celldm(6)=   0.000000

     crystal axes: (cart. coord. in units of alat)
               a(1) = (   1.000000   0.000000   0.000000 )  
               a(2) = (  -0.500000   0.866025   0.000000 )  
               a(3) = (   0.000000   0.000000   4.270286 )  

     reciprocal axes: (cart. coord. in units 2 pi/alat)
               b(1) = (  1.000000  0.577350 -0.000000 )  
               b(2) = (  0.000000  1.154701  0.000000 )  
               b(3) = (  0.000000 -0.000000  0.234176 )  


     PseudoPot. # 1 for Sn read from file:
     ../pseudo/Sn_pbe_v1.uspp.F.UPF
     MD5 check sum: 4cf58ce39ec5d5d420df3dd08604eb00
     Pseudo is Ultrasoft + core correction, Zval = 14.0
     Generated by new atomic code, or converted to UPF format
     Using radial grid of  891 points,  6 beta functions with: 
                l(1) =   0
                l(2) =   0
                l(3) =   1
                l(4) =   1
                l(5) =   2
                l(6) =   2
     Q(r) pseudized with  6 coefficients,  rinner =    1.200   1.200   1.200
                                                       1.200   1.200

     atomic species   valence    mass     pseudopotential
        Sn            14.00   118.71000     Sn( 1.00)

      6 Sym. Ops. (no inversion) found



   Cartesian axes

     site n.     atom                  positions (alat units)
         1           Sn  tau(   1) = (   0.0000000   0.5773503   2.1351428  )
         2           Sn  tau(   2) = (   0.5000000   0.2886751   1.9552503  )

     number of k points=    61  Fermi-Dirac smearing, width (Ry)=  0.0300
                       cart. coord. in units 2pi/alat
        k(    1) = (   0.0000000   0.0000000   0.0000000), wk =   0.0034722
        k(    2) = (   0.0000000   0.0481125   0.0000000), wk =   0.0208333
        k(    3) = (   0.0000000   0.0962250   0.0000000), wk =   0.0208333
        k(    4) = (   0.0000000   0.1443376   0.0000000), wk =   0.0208333
        k(    5) = (   0.0000000   0.1924501   0.0000000), wk =   0.0208333
        k(    6) = (   0.0000000   0.2405626   0.0000000), wk =   0.0208333
        k(    7) = (   0.0000000   0.2886751   0.0000000), wk =   0.0208333
        k(    8) = (   0.0000000   0.3367877   0.0000000), wk =   0.0208333
        k(    9) = (   0.0000000   0.3849002   0.0000000), wk =   0.0208333
        k(   10) = (   0.0000000   0.4330127   0.0000000), wk =   0.0208333
        k(   11) = (   0.0000000   0.4811252   0.0000000), wk =   0.0208333
        k(   12) = (   0.0000000   0.5292377   0.0000000), wk =   0.0208333
        k(   13) = (   0.0000000  -0.5773503   0.0000000), wk =   0.0104167
        k(   14) = (   0.0416667   0.0721688   0.0000000), wk =   0.0208333
        k(   15) = (   0.0416667   0.1202813   0.0000000), wk =   0.0416667
        k(   16) = (   0.0416667   0.1683938   0.0000000), wk =   0.0416667
        k(   17) = (   0.0416667   0.2165064   0.0000000), wk =   0.0416667
        k(   18) = (   0.0416667   0.2646189   0.0000000), wk =   0.0416667
        k(   19) = (   0.0416667   0.3127314   0.0000000), wk =   0.0416667
        k(   20) = (   0.0416667   0.3608439   0.0000000), wk =   0.0416667
        k(   21) = (   0.0416667   0.4089564   0.0000000), wk =   0.0416667
        k(   22) = (   0.0416667   0.4570690   0.0000000), wk =   0.0416667
        k(   23) = (   0.0416667   0.5051815   0.0000000), wk =   0.0416667
        k(   24) = (   0.0416667   0.5532940   0.0000000), wk =   0.0416667
        k(   25) = (   0.0833333   0.1443376   0.0000000), wk =   0.0208333
        k(   26) = (   0.0833333   0.1924501   0.0000000), wk =   0.0416667
        k(   27) = (   0.0833333   0.2405626   0.0000000), wk =   0.0416667
        k(   28) = (   0.0833333   0.2886751   0.0000000), wk =   0.0416667
        k(   29) = (   0.0833333   0.3367877   0.0000000), wk =   0.0416667
        k(   30) = (   0.0833333   0.3849002   0.0000000), wk =   0.0416667
        k(   31) = (   0.0833333   0.4330127   0.0000000), wk =   0.0416667
        k(   32) = (   0.0833333   0.4811252   0.0000000), wk =   0.0416667
        k(   33) = (   0.0833333   0.5292377   0.0000000), wk =   0.0416667
        k(   34) = (   0.0833333   0.5773503   0.0000000), wk =   0.0208333
        k(   35) = (   0.1250000   0.2165064   0.0000000), wk =   0.0208333
        k(   36) = (   0.1250000   0.2646189   0.0000000), wk =   0.0416667
        k(   37) = (   0.1250000   0.3127314   0.0000000), wk =   0.0416667
        k(   38) = (   0.1250000   0.3608439   0.0000000), wk =   0.0416667
        k(   39) = (   0.1250000   0.4089564   0.0000000), wk =   0.0416667
        k(   40) = (   0.1250000   0.4570690   0.0000000), wk =   0.0416667
        k(   41) = (   0.1250000   0.5051815   0.0000000), wk =   0.0416667
        k(   42) = (   0.1250000   0.5532940   0.0000000), wk =   0.0416667
        k(   43) = (   0.1666667   0.2886751   0.0000000), wk =   0.0208333
        k(   44) = (   0.1666667   0.3367877   0.0000000), wk =   0.0416667
        k(   45) = (   0.1666667   0.3849002   0.0000000), wk =   0.0416667
        k(   46) = (   0.1666667   0.4330127   0.0000000), wk =   0.0416667
        k(   47) = (   0.1666667   0.4811252   0.0000000), wk =   0.0416667
        k(   48) = (   0.1666667   0.5292377   0.0000000), wk =   0.0416667
        k(   49) = (   0.1666667   0.5773503   0.0000000), wk =   0.0208333
        k(   50) = (   0.2083333   0.3608439   0.0000000), wk =   0.0208333
        k(   51) = (   0.2083333   0.4089564   0.0000000), wk =   0.0416667
        k(   52) = (   0.2083333   0.4570690   0.0000000), wk =   0.0416667
        k(   53) = (   0.2083333   0.5051815   0.0000000), wk =   0.0416667
        k(   54) = (   0.2083333   0.5532940   0.0000000), wk =   0.0416667
        k(   55) = (   0.2500000   0.4330127   0.0000000), wk =   0.0208333
        k(   56) = (   0.2500000   0.4811252   0.0000000), wk =   0.0416667
        k(   57) = (   0.2500000   0.5292377   0.0000000), wk =   0.0416667
        k(   58) = (   0.2500000   0.5773503   0.0000000), wk =   0.0208333
        k(   59) = (   0.2916667   0.5051815   0.0000000), wk =   0.0208333
        k(   60) = (   0.2916667   0.5532940   0.0000000), wk =   0.0416667
        k(   61) = (   0.3333333   0.5773503   0.0000000), wk =   0.0069444

     Dense  grid:   455489 G-vectors     FFT dimensions: (  64,  64, 270)

     Smooth grid:   160939 G-vectors     FFT dimensions: (  45,  45, 192)

     Estimated max dynamical RAM per process >     322.30 MB

     Estimated total dynamical RAM >       1.89 GB

     Initial potential from superposition of free atoms

     starting charge   25.99991, renormalised to   28.00000

     negative rho (up, down):  5.949E-04 0.000E+00
     Starting wfcs are   18 randomized atomic wfcs

     total cpu time spent up to now is        6.2 secs

     Self-consistent Calculation

     iteration #  1     ecut=    60.00 Ry     beta= 0.70
     Davidson diagonalization with overlap
     ethr =  1.00E-02,  avg # of iterations =  8.8

     total cpu time spent up to now is       28.2 secs

     total energy              =    -325.41857736 Ry
     estimated scf accuracy    <       2.54392160 Ry

     iteration #  2     ecut=    60.00 Ry     beta= 0.70
     Davidson diagonalization with overlap
     ethr =  9.09E-03,  avg # of iterations =  2.9

     total cpu time spent up to now is       46.3 secs

     total energy              =    -326.36472207 Ry
     estimated scf accuracy    <       0.44899282 Ry

     iteration #  3     ecut=    60.00 Ry     beta= 0.70
     Davidson diagonalization with overlap
     ethr =  1.60E-03,  avg # of iterations =  2.0

     total cpu time spent up to now is       66.4 secs

     total energy              =    -326.43329667 Ry
     estimated scf accuracy    <       0.00815162 Ry

     iteration #  4     ecut=    60.00 Ry     beta= 0.70
     Davidson diagonalization with overlap
     ethr =  2.91E-05,  avg # of iterations =  9.0

     negative rho (up, down):  4.324E-05 0.000E+00

     total cpu time spent up to now is       87.1 secs

     total energy              =    -326.43560821 Ry
     estimated scf accuracy    <       0.00023328 Ry

     iteration #  5     ecut=    60.00 Ry     beta= 0.70
     Davidson diagonalization with overlap
     ethr =  8.33E-07,  avg # of iterations =  6.4

     negative rho (up, down):  6.334E-05 0.000E+00

     total cpu time spent up to now is      104.1 secs

     total energy              =    -326.43561214 Ry
     estimated scf accuracy    <       0.00002539 Ry

     iteration #  6     ecut=    60.00 Ry     beta= 0.70
     Davidson diagonalization with overlap
     ethr =  9.07E-08,  avg # of iterations =  3.2

     negative rho (up, down):  6.947E-05 0.000E+00

     total cpu time spent up to now is      121.4 secs

     total energy              =    -326.43561591 Ry
     estimated scf accuracy    <       0.00002251 Ry

     iteration #  7     ecut=    60.00 Ry     beta= 0.70
     Davidson diagonalization with overlap
     ethr =  8.04E-08,  avg # of iterations =  2.0

     negative rho (up, down):  8.036E-05 0.000E+00

     total cpu time spent up to now is      134.7 secs

     End of self-consistent calculation

          k = 0.0000 0.0000 0.0000 ( 20025 PWs)   bands (ev):

   -23.6131 -23.6131 -23.5289 -23.5289 -23.5010 -23.4300 -23.3048 -23.3048
   -23.2541 -23.2541 -11.4624  -5.3280  -2.4979  -2.4979  -2.0236  -0.0978
     1.0037   1.0037

          k = 0.0000 0.0481 0.0000 ( 20035 PWs)   bands (ev):

   -23.6139 -23.6138 -23.5290 -23.5276 -23.5003 -23.4290 -23.3073 -23.3071
   -23.2527 -23.2519 -11.4477  -5.3521  -2.7813  -2.5304  -1.7210  -0.0971
     0.9745   1.0595

          k = 0.0000 0.0962 0.0000 ( 20005 PWs)   bands (ev):

   -23.6163 -23.6159 -23.5299 -23.5240 -23.4980 -23.4260 -23.3135 -23.3128
   -23.2494 -23.2463 -11.4037  -5.4329  -3.1630  -2.6209  -1.2869  -0.0983
     0.9215   1.2192

          k = 0.0000 0.1443 0.0000 ( 20065 PWs)   bands (ev):

   -23.6197 -23.6187 -23.5320 -23.5186 -23.4944 -23.4210 -23.3217 -23.3205
   -23.2455 -23.2391 -11.3305  -5.5911  -3.4668  -2.7525  -0.9234  -0.1103
     0.9296   1.4627

          k = 0.0000 0.1925 0.0000 ( 20113 PWs)   bands (ev):

   -23.6235 -23.6213 -23.5356 -23.5121 -23.4902 -23.4142 -23.3306 -23.3287
   -23.2421 -23.2315 -11.2288  -5.8417  -3.6551  -2.9065  -0.7219  -0.1369
     1.0806   1.7649

          k = 0.0000 0.2406 0.0000 ( 20071 PWs)   bands (ev):

   -23.6273 -23.6234 -23.5404 -23.5052 -23.4865 -23.4057 -23.3396 -23.3363
   -23.2400 -23.2241 -11.0994  -6.1737  -3.7297  -3.0669  -0.7055  -0.1720
     1.3517   2.2701

          k = 0.0000 0.2887 0.0000 ( 20087 PWs)   bands (ev):

   -23.6309 -23.6244 -23.5462 -23.4984 -23.4840 -23.3960 -23.3482 -23.3425
   -23.2392 -23.2171 -10.9437  -6.5565  -3.7162  -3.2219  -0.8054  -0.2279
     1.6065   2.4483

          k = 0.0000 0.3368 0.0000 ( 20109 PWs)   bands (ev):

   -23.6339 -23.6242 -23.5526 -23.4921 -23.4830 -23.3860 -23.3559 -23.3465
   -23.2399 -23.2110 -10.7641  -6.9594  -3.6424  -3.3630  -0.9536  -0.3162
     1.7739   2.6574

          k = 0.0000 0.3849 0.0000 ( 20145 PWs)   bands (ev):

   -23.6364 -23.6228 -23.5595 -23.4866 -23.4832 -23.3775 -23.3625 -23.3473
   -23.2420 -23.2058 -10.5649  -7.3582  -3.5312  -3.4844  -1.1179  -0.4282
     1.9108   2.8730

          k = 0.0000 0.4330 0.0000 ( 20161 PWs)   bands (ev):

   -23.6384 -23.6202 -23.5665 -23.4841 -23.4822 -23.3722 -23.3678 -23.3442
   -23.2451 -23.2016 -10.3543  -7.7329  -3.5823  -3.4018  -1.2829  -0.5426
     2.0606   3.0899

          k = 0.0000 0.4811 0.0000 ( 20157 PWs)   bands (ev):

   -23.6397 -23.6170 -23.5730 -23.4852 -23.4790 -23.3717 -23.3701 -23.3386
   -23.2485 -23.1986 -10.1490  -8.0594  -3.6539  -3.2756  -1.4328  -0.6379
     2.2249   3.2647

          k = 0.0000 0.5292 0.0000 ( 20142 PWs)   bands (ev):

   -23.6405 -23.6141 -23.5780 -23.4861 -23.4770 -23.3741 -23.3694 -23.3336
   -23.2513 -23.1968  -9.9835  -8.2991  -3.6975  -3.1793  -1.5435  -0.6995
     2.3732   3.3191

          k = 0.0000-0.5774 0.0000 ( 20152 PWs)   bands (ev):

   -23.6408 -23.6128 -23.5800 -23.4864 -23.4764 -23.3748 -23.3693 -23.3317
   -23.2524 -23.1962  -9.9159  -8.3916  -3.7121  -3.1425  -1.5854  -0.7207
     2.4391   3.3285

          k = 0.0417 0.0722 0.0000 ( 20017 PWs)   bands (ev):

   -23.6156 -23.6152 -23.5294 -23.5253 -23.4987 -23.4270 -23.3116 -23.3110
   -23.2505 -23.2479 -11.4183  -5.4045  -3.0637  -2.5962  -1.3967  -0.0973
     0.9238   1.1760

          k = 0.0417 0.1203 0.0000 ( 20039 PWs)   bands (ev):

   -23.6186 -23.6174 -23.5308 -23.5210 -23.4955 -23.4231 -23.3188 -23.3176
   -23.2473 -23.2414 -11.3597  -5.5245  -3.3661  -2.7172  -1.0159  -0.1049
     0.8731   1.3982

          k = 0.0417 0.1684 0.0000 ( 20081 PWs)   bands (ev):

   -23.6225 -23.6199 -23.5337 -23.5154 -23.4912 -23.4173 -23.3272 -23.3254
   -23.2441 -23.2338 -11.2723  -5.7306  -3.5878  -2.8710  -0.7204  -0.1289
     0.9159   1.6945

          k = 0.0417 0.2165 0.0000 ( 20075 PWs)   bands (ev):

   -23.6265 -23.6220 -23.5380 -23.5091 -23.4866 -23.4098 -23.3359 -23.3332
   -23.2418 -23.2261 -11.1566  -6.0242  -3.7029  -3.0379  -0.6042  -0.1600
     1.1127   2.0176

          k = 0.0417 0.2646 0.0000 ( 20107 PWs)   bands (ev):

   -23.6304 -23.6232 -23.5434 -23.5026 -23.4828 -23.4010 -23.3444 -23.3401
   -23.2408 -23.2187 -11.0139  -6.3827  -3.7240  -3.2022  -0.6612  -0.1910
     1.4037   2.2422

          k = 0.0417 0.3127 0.0000 ( 20105 PWs)   bands (ev):

   -23.6339 -23.6234 -23.5496 -23.4965 -23.4803 -23.3916 -23.3523 -23.3451
   -23.2412 -23.2120 -10.8460  -6.7750  -3.6796  -3.3503  -0.8047  -0.2459
     1.6589   2.4485

          k = 0.0417 0.3608 0.0000 ( 20127 PWs)   bands (ev):

   -23.6369 -23.6225 -23.5564 -23.4912 -23.4791 -23.3827 -23.3592 -23.3474
   -23.2430 -23.2061 -10.6559  -7.1748  -3.6159  -3.4523  -0.9799  -0.3300
     1.8361   2.6851

          k = 0.0417 0.4090 0.0000 ( 20135 PWs)   bands (ev):

   -23.6392 -23.6203 -23.5634 -23.4872 -23.4785 -23.3763 -23.3649 -23.3460
   -23.2459 -23.2013 -10.4496  -7.5612  -3.6489  -3.4066  -1.1642  -0.4275
     1.9895   2.8691

          k = 0.0417 0.4571 0.0000 ( 20146 PWs)   bands (ev):

   -23.6409 -23.6174 -23.5701 -23.4850 -23.4778 -23.3737 -23.3686 -23.3412
   -23.2496 -23.1975 -10.2384  -7.9135  -3.7234  -3.2845  -1.3418  -0.5182
     2.1491   2.9908

          k = 0.0417 0.5052 0.0000 ( 20148 PWs)   bands (ev):

   -23.6420 -23.6141 -23.5760 -23.4844 -23.4768 -23.3742 -23.3698 -23.3356
   -23.2531 -23.1950 -10.0464  -8.2021  -3.7791  -3.1681  -1.4907  -0.5859
     2.3028   3.0770

          k = 0.0417 0.5533 0.0000 ( 20150 PWs)   bands (ev):

   -23.6426 -23.6118 -23.5797 -23.4844 -23.4761 -23.3752 -23.3699 -23.3320
   -23.2553 -23.1937  -9.9213  -8.3763  -3.8079  -3.0955  -1.5794  -0.6217
     2.4060   3.1751

          k = 0.0833 0.1443 0.0000 ( 20061 PWs)   bands (ev):

   -23.6222 -23.6192 -23.5329 -23.5170 -23.4913 -23.4184 -23.3260 -23.3241
   -23.2452 -23.2343 -11.2868  -5.6936  -3.5535  -2.8752  -0.6930  -0.1291
     0.8184   1.6962

          k = 0.0833 0.1925 0.0000 ( 20087 PWs)   bands (ev):

   -23.6265 -23.6208 -23.5365 -23.5120 -23.4858 -23.4123 -23.3339 -23.3314
   -23.2438 -23.2263 -11.1854  -5.9462  -3.6697  -3.0621  -0.4360  -0.1752
     0.8586   2.0459

          k = 0.0833 0.2406 0.0000 ( 20121 PWs)   bands (ev):

   -23.6309 -23.6217 -23.5415 -23.5065 -23.4803 -23.4051 -23.3418 -23.3384
   -23.2434 -23.2184 -11.0563  -6.2693  -3.7062  -3.2513  -0.4157  -0.1606
     1.0600   2.2111

          k = 0.0833 0.2887 0.0000 ( 20106 PWs)   bands (ev):

   -23.6351 -23.6218 -23.5474 -23.5008 -23.4757 -23.3972 -23.3494 -23.3439
   -23.2442 -23.2109 -10.9009  -6.6372  -3.6847  -3.4187  -0.5721  -0.1306
     1.3720   2.2873

          k = 0.0833 0.3368 0.0000 ( 20114 PWs)   bands (ev):

   -23.6387 -23.6209 -23.5540 -23.4955 -23.4726 -23.3895 -23.3562 -23.3470
   -23.2464 -23.2041 -10.7216  -7.0245  -3.6858  -3.4926  -0.7746  -0.1501
     1.6773   2.4262

          k = 0.0833 0.3849 0.0000 ( 20126 PWs)   bands (ev):

   -23.6418 -23.6190 -23.5608 -23.4907 -23.4712 -23.3832 -23.3620 -23.3468
   -23.2498 -23.1983 -10.5224  -7.4100  -3.7848  -3.4085  -0.9932  -0.1999
     1.9095   2.5842

          k = 0.0833 0.4330 0.0000 ( 20149 PWs)   bands (ev):

   -23.6441 -23.6161 -23.5676 -23.4866 -23.4712 -23.3794 -23.3665 -23.3431
   -23.2540 -23.1936 -10.3112  -7.7749  -3.8872  -3.2735  -1.2109  -0.2595
     2.0900   2.6878

          k = 0.0833 0.4811 0.0000 ( 20151 PWs)   bands (ev):

   -23.6458 -23.6128 -23.5739 -23.4831 -23.4722 -23.3777 -23.3696 -23.3376
   -23.2585 -23.1901 -10.1041  -8.0960  -3.9649  -3.1334  -1.4081  -0.3127
     2.2342   2.7796

          k = 0.0833 0.5292 0.0000 ( 20157 PWs)   bands (ev):

   -23.6468 -23.6097 -23.5787 -23.4803 -23.4739 -23.3771 -23.3714 -23.3328
   -23.2620 -23.1880  -9.9357  -8.3342  -4.0126  -3.0216  -1.5543  -0.3485
     2.3224   2.9181

          k = 0.0833 0.5774 0.0000 ( 20154 PWs)   bands (ev):

   -23.6471 -23.6084 -23.5806 -23.4788 -23.4750 -23.3769 -23.3720 -23.3309
   -23.2634 -23.1873  -9.8663  -8.4272  -4.0287  -2.9773  -1.6101  -0.3610
     2.3493   3.0380

          k = 0.1250 0.2165 0.0000 ( 20099 PWs)   bands (ev):

   -23.6311 -23.6212 -23.5407 -23.5080 -23.4791 -23.4067 -23.3409 -23.3378
   -23.2445 -23.2181 -11.0704  -6.2297  -3.6917  -3.2841  -0.2758  -0.1374
     0.8642   2.2300

          k = 0.1250 0.2646 0.0000 ( 20119 PWs)   bands (ev):

   -23.6358 -23.6209 -23.5461 -23.5033 -23.4724 -23.4008 -23.3477 -23.3433
   -23.2463 -23.2099 -10.9285  -6.5625  -3.6618  -3.4991  -0.4237   0.0598
     1.0268   2.2734

          k = 0.1250 0.3127 0.0000 ( 20122 PWs)   bands (ev):

   -23.6403 -23.6197 -23.5524 -23.4983 -23.4668 -23.3954 -23.3541 -23.3467
   -23.2494 -23.2021 -10.7612  -6.9238  -3.7326  -3.5467  -0.6206   0.1338
     1.3424   2.3316

          k = 0.1250 0.3608 0.0000 ( 20112 PWs)   bands (ev):

   -23.6442 -23.6176 -23.5590 -23.4932 -23.4631 -23.3909 -23.3599 -23.3470
   -23.2537 -23.1952 -10.5715  -7.2945  -3.9037  -3.4293  -0.8465   0.1375
     1.7010   2.3884

          k = 0.1250 0.4090 0.0000 ( 20146 PWs)   bands (ev):

   -23.6475 -23.6147 -23.5657 -23.4883 -23.4617 -23.3874 -23.3648 -23.3441
   -23.2589 -23.1894 -10.3647  -7.6576  -4.0483  -3.2808  -1.0835   0.1126
     2.0062   2.4095

          k = 0.1250 0.4571 0.0000 ( 20145 PWs)   bands (ev):

   -23.6499 -23.6113 -23.5720 -23.4834 -23.4627 -23.3846 -23.3689 -23.3392
   -23.2645 -23.1848 -10.1514  -7.9943  -4.1588  -3.1209  -1.3128   0.0801
     2.1855   2.4773

          k = 0.1250 0.5052 0.0000 ( 20141 PWs)   bands (ev):

   -23.6516 -23.6078 -23.5775 -23.4788 -23.4654 -23.3821 -23.3724 -23.3339
   -23.2696 -23.1817  -9.9545  -8.2761  -4.2332  -2.9736  -1.5080   0.0522
     2.2139   2.6783

          k = 0.1250 0.5533 0.0000 ( 20145 PWs)   bands (ev):

   -23.6524 -23.6054 -23.5809 -23.4744 -23.4689 -23.3799 -23.3750 -23.3303
   -23.2729 -23.1801  -9.8232  -8.4506  -4.2705  -2.8780  -1.6281   0.0365
     2.2063   2.8982

          k = 0.1667 0.2887 0.0000 ( 20113 PWs)   bands (ev):

   -23.6409 -23.6192 -23.5518 -23.4993 -23.4643 -23.3978 -23.3534 -23.3466
   -23.2506 -23.2014 -10.7744  -6.8881  -3.7498  -3.5692  -0.5711   0.3471
     1.0965   2.3422

          k = 0.1667 0.3368 0.0000 ( 20110 PWs)   bands (ev):

   -23.6456 -23.6169 -23.5581 -23.4946 -23.4573 -23.3964 -23.3587 -23.3470
   -23.2560 -23.1934 -10.5963  -7.2312  -3.9728  -3.4453  -0.7700   0.5061
     1.3532   2.4009

          k = 0.1667 0.3849 0.0000 ( 20115 PWs)   bands (ev):

   -23.6498 -23.6138 -23.5645 -23.4894 -23.4526 -23.3954 -23.3637 -23.3446
   -23.2623 -23.1864 -10.3975  -7.5776  -4.1625  -3.2929  -0.9966   0.5477
     1.7350   2.3210

          k = 0.1667 0.4330 0.0000 ( 20139 PWs)   bands (ev):

   -23.6532 -23.6103 -23.5707 -23.4840 -23.4513 -23.3937 -23.3684 -23.3402
   -23.2692 -23.1807 -10.1848  -7.9129  -4.3127  -3.1230  -1.2320   0.5466
     2.1182   2.2069

          k = 0.1667 0.4811 0.0000 ( 20145 PWs)   bands (ev):

   -23.6557 -23.6065 -23.5763 -23.4786 -23.4531 -23.3905 -23.3728 -23.3349
   -23.2759 -23.1764  -9.9725  -8.2169  -4.4210  -2.9517  -1.4542   0.5346
     2.1021   2.4692

          k = 0.1667 0.5292 0.0000 ( 20147 PWs)   bands (ev):

   -23.6573 -23.6033 -23.5807 -23.4736 -23.4566 -23.3863 -23.3771 -23.3303
   -23.2813 -23.1737  -9.7940  -8.4519  -4.4862  -2.8094  -1.6285   0.5239
     2.0402   2.7678

          k = 0.1667 0.5774 0.0000 ( 20135 PWs)   bands (ev):

   -23.6578 -23.6018 -23.5825 -23.4710 -23.4588 -23.3828 -23.3806 -23.3284
   -23.2835 -23.1729  -9.7174  -8.5475  -4.5079  -2.7497  -1.6991   0.5197
     2.0190   2.9344

          k = 0.2083 0.3608 0.0000 ( 20119 PWs)   bands (ev):

   -23.6506 -23.6135 -23.5641 -23.4898 -23.4485 -23.3992 -23.3634 -23.3447
   -23.2635 -23.1854 -10.4086  -7.5491  -4.2037  -3.2981  -0.9662   0.8384
     1.4745   2.3625

          k = 0.2083 0.4090 0.0000 ( 20133 PWs)   bands (ev):

   -23.6550 -23.6098 -23.5700 -23.4844 -23.4420 -23.4017 -23.3681 -23.3406
   -23.2717 -23.1784 -10.2021  -7.8673  -4.3974  -3.1273  -1.1862   0.9962
     1.7936   2.1905

          k = 0.2083 0.4571 0.0000 ( 20137 PWs)   bands (ev):

   -23.6584 -23.6058 -23.5755 -23.4786 -23.4401 -23.4009 -23.3729 -23.3356
   -23.2799 -23.1729  -9.9852  -8.1726  -4.5462  -2.9443  -1.4116   1.0422
     2.0142   2.2307

          k = 0.2083 0.5052 0.0000 ( 20163 PWs)   bands (ev):

   -23.6608 -23.6021 -23.5803 -23.4731 -23.4423 -23.3964 -23.3782 -23.3305
   -23.2874 -23.1691  -9.7771  -8.4418  -4.6464  -2.7690  -1.6180   1.0567
     1.9093   2.6113

          k = 0.2083 0.5533 0.0000 ( 20157 PWs)   bands (ev):

   -23.6621 -23.5993 -23.5835 -23.4691 -23.4454 -23.3902 -23.3839 -23.3269
   -23.2923 -23.1671  -9.6287  -8.6216  -4.6967  -2.6458  -1.7575   1.0617
     1.8507   2.9059

          k = 0.2500 0.4330 0.0000 ( 20149 PWs)   bands (ev):

   -23.6594 -23.6056 -23.5752 -23.4787 -23.4327 -23.4074 -23.3730 -23.3358
   -23.2813 -23.1717  -9.9897  -8.1562  -4.5901  -2.9429  -1.3955   1.3630
     1.9599   2.0312

          k = 0.2500 0.4811 0.0000 ( 20153 PWs)   bands (ev):

   -23.6627 -23.6015 -23.5800 -23.4728 -23.4285 -23.4080 -23.3787 -23.3307
   -23.2904 -23.1667  -9.7698  -8.4327  -4.7316  -2.7509  -1.6082   1.5269
     1.8819   2.3322

          k = 0.2500 0.5292 0.0000 ( 20133 PWs)   bands (ev):

   -23.6648 -23.5980 -23.5840 -23.4679 -23.4307 -23.4016 -23.3853 -23.3259
   -23.2980 -23.1635  -9.5684  -8.6688  -4.8179  -2.5766  -1.7962   1.5944
     1.7673   2.7449

          k = 0.2500 0.5774 0.0000 ( 20123 PWs)   bands (ev):

   -23.6655 -23.5963 -23.5858 -23.4658 -23.4324 -23.3947 -23.3917 -23.3235
   -23.3013 -23.1625  -9.4699  -8.7791  -4.8468  -2.4928  -1.8848   1.6323
     1.7077   2.9646

          k = 0.2917 0.5052 0.0000 ( 20137 PWs)   bands (ev):

   -23.6658 -23.5976 -23.5841 -23.4675 -23.4179 -23.4133 -23.3858 -23.3255
   -23.2999 -23.1623  -9.5469  -8.6852  -4.8596  -2.5521  -1.8098   1.6723
     2.0392   2.4915

          k = 0.2917 0.5533 0.0000 ( 20132 PWs)   bands (ev):

   -23.6673 -23.5943 -23.5874 -23.4641 -23.4187 -23.4055 -23.3941 -23.3207
   -23.3071 -23.1601  -9.3498  -8.8971  -4.9247  -2.3789  -1.9847   1.6317
     2.1738   2.7850

          k = 0.3333 0.5774 0.0000 ( 20133 PWs)   bands (ev):

   -23.6682 -23.5908 -23.5908 -23.4627 -23.4094 -23.4082 -23.4010 -23.3146
   -23.3146 -23.1589  -9.1252  -9.1247  -4.9610  -2.1804  -2.1799   1.5988
     2.6071   2.6074

     the Fermi energy is    -2.1386 ev

!    total energy              =    -326.43561962 Ry
     estimated scf accuracy    <       0.00000037 Ry
     smearing contrib. (-TS)   =      -0.04568518 Ry
     internal energy E=F+TS    =    -326.38993444 Ry

     The total energy is F=E-TS. E is the sum of the following terms:
     one-electron contribution =    -856.26219449 Ry
     hartree contribution      =     435.75508686 Ry
     xc contribution           =     -95.00429212 Ry
     ewald contribution        =     189.12146532 Ry

     convergence has been achieved in   7 iterations

     Writing output data file ../tmp/stanene.save/

     init_run     :      5.90s CPU      6.14s WALL (       1 calls)
     electrons    :    123.30s CPU    128.54s WALL (       1 calls)

     Called by init_run:
     wfcinit      :      4.68s CPU      4.77s WALL (       1 calls)
     potinit      :      0.41s CPU      0.46s WALL (       1 calls)
     hinit0       :      0.39s CPU      0.39s WALL (       1 calls)

     Called by electrons:
     c_bands      :    106.16s CPU    109.52s WALL (       7 calls)
     sum_band     :     13.53s CPU     14.80s WALL (       7 calls)
     v_of_rho     :      1.28s CPU      1.37s WALL (       8 calls)
     newd         :      2.29s CPU      2.91s WALL (       8 calls)
     mix_rho      :      0.20s CPU      0.23s WALL (       7 calls)

     Called by c_bands:
     init_us_2    :      0.84s CPU      0.85s WALL (     915 calls)
     cegterg      :    102.82s CPU    106.16s WALL (     427 calls)

     Called by *egterg:
     cdiaghg      :      1.70s CPU      1.73s WALL (    2513 calls)
     h_psi        :     64.64s CPU     67.75s WALL (    2574 calls)
     s_psi        :      4.65s CPU      4.70s WALL (    2574 calls)
     g_psi        :      0.42s CPU      0.43s WALL (    2086 calls)

     Called by h_psi:
     h_psi:calbec :      8.23s CPU      8.56s WALL (    2574 calls)
     vloc_psi     :     51.31s CPU     53.98s WALL (    2574 calls)
     add_vuspsi   :      4.86s CPU      4.96s WALL (    2574 calls)

     General routines
     calbec       :     10.50s CPU     10.87s WALL (    3001 calls)
     fft          :      1.34s CPU      1.39s WALL (     102 calls)
     ffts         :      0.06s CPU      0.06s WALL (      15 calls)
     fftw         :     53.45s CPU     56.02s WALL (   55436 calls)
     interpolate  :      0.16s CPU      0.17s WALL (       8 calls)

     Parallel routines
     fft_scatt_xy :      4.94s CPU      5.28s WALL (   55553 calls)
     fft_scatt_yz :     28.47s CPU     29.53s WALL (   55553 calls)

     PWSCF        :   2m 9.38s CPU   2m15.20s WALL


   This run was terminated on:  22:40:21  23Jan2024            

=------------------------------------------------------------------------------=
   JOB DONE.
=------------------------------------------------------------------------------=
