
     Program PWSCF v.6.7MaX starts on 23Jan2024 at 23: 0: 7 

     This program is part of the open-source Quantum ESPRESSO suite
     for quantum simulation of materials; please cite
         "P. Giannozzi et al., J. Phys.:Condens. Matter 21 395502 (2009);
         "P. Giannozzi et al., J. Phys.:Condens. Matter 29 465901 (2017);
          URL http://www.quantum-espresso.org", 
     in publications or presentations arising from this work. More details at
     http://www.quantum-espresso.org/quote

     Parallel version (MPI), running on     6 processors

     MPI processes distributed on     1 nodes
     R & G space division:  proc/nbgrp/npool/nimage =       6
     Waiting for input...
     Reading input from standard input

     Current dimensions of program PWSCF are:
     Max number of different atomic species (ntypx) = 10
     Max number of k-points (npk) =  40000
     Max angular momentum in pseudopotentials (lmaxx) =  3

     Subspace diagonalization in iterative solution of the eigenvalue problem:
     one sub-group per band group will be used
     scalapack distributed-memory algorithm (size of sub-group:  2*  2 procs)


     Parallelization info
     --------------------
     sticks:   dense  smooth     PW     G-vecs:    dense   smooth      PW
     Min         431     214     61                75909    26818    4015
     Max         432     215     62                75924    26841    4025
     Sum        2587    1285    367               455489   160939   24117



     bravais-lattice index     =            4
     lattice parameter (alat)  =       8.8506  a.u.
     unit-cell volume          =    2563.9136 (a.u.)^3
     number of atoms/cell      =            2
     number of atomic types    =            1
     number of electrons       =        28.00
     number of Kohn-Sham states=           18
     kinetic-energy cutoff     =      60.0000  Ry
     charge density cutoff     =     480.0000  Ry
     scf convergence threshold =      1.0E-06
     mixing beta               =       0.7000
     number of iterations used =            8  plain     mixing
     Exchange-correlation= SLA  PW   PBE  PBE
                           (   1   4   3   4   0   0   0)

     celldm(1)=   8.850584  celldm(2)=   0.000000  celldm(3)=   4.270286
     celldm(4)=   0.000000  celldm(5)=   0.000000  celldm(6)=   0.000000

     crystal axes: (cart. coord. in units of alat)
               a(1) = (   1.000000   0.000000   0.000000 )  
               a(2) = (  -0.500000   0.866025   0.000000 )  
               a(3) = (   0.000000   0.000000   4.270286 )  

     reciprocal axes: (cart. coord. in units 2 pi/alat)
               b(1) = (  1.000000  0.577350 -0.000000 )  
               b(2) = (  0.000000  1.154701  0.000000 )  
               b(3) = (  0.000000 -0.000000  0.234176 )  


     PseudoPot. # 1 for Sn read from file:
     ../pseudo/Sn_pbe_v1.uspp.F.UPF
     MD5 check sum: 4cf58ce39ec5d5d420df3dd08604eb00
     Pseudo is Ultrasoft + core correction, Zval = 14.0
     Generated by new atomic code, or converted to UPF format
     Using radial grid of  891 points,  6 beta functions with: 
                l(1) =   0
                l(2) =   0
                l(3) =   1
                l(4) =   1
                l(5) =   2
                l(6) =   2
     Q(r) pseudized with  6 coefficients,  rinner =    1.200   1.200   1.200
                                                       1.200   1.200

     atomic species   valence    mass     pseudopotential
        Sn            14.00   118.71000     Sn( 1.00)

      6 Sym. Ops. (no inversion) found



   Cartesian axes

     site n.     atom                  positions (alat units)
         1           Sn  tau(   1) = (   0.0000000   0.5773503   2.1351428  )
         2           Sn  tau(   2) = (   0.5000000   0.2886751   1.9552503  )

     number of k points=    61  Gaussian smearing, width (Ry)=  0.0400
                       cart. coord. in units 2pi/alat
        k(    1) = (   0.0000000   0.0000000   0.0000000), wk =   0.0034722
        k(    2) = (   0.0000000   0.0481125   0.0000000), wk =   0.0208333
        k(    3) = (   0.0000000   0.0962250   0.0000000), wk =   0.0208333
        k(    4) = (   0.0000000   0.1443376   0.0000000), wk =   0.0208333
        k(    5) = (   0.0000000   0.1924501   0.0000000), wk =   0.0208333
        k(    6) = (   0.0000000   0.2405626   0.0000000), wk =   0.0208333
        k(    7) = (   0.0000000   0.2886751   0.0000000), wk =   0.0208333
        k(    8) = (   0.0000000   0.3367877   0.0000000), wk =   0.0208333
        k(    9) = (   0.0000000   0.3849002   0.0000000), wk =   0.0208333
        k(   10) = (   0.0000000   0.4330127   0.0000000), wk =   0.0208333
        k(   11) = (   0.0000000   0.4811252   0.0000000), wk =   0.0208333
        k(   12) = (   0.0000000   0.5292377   0.0000000), wk =   0.0208333
        k(   13) = (   0.0000000  -0.5773503   0.0000000), wk =   0.0104167
        k(   14) = (   0.0416667   0.0721688   0.0000000), wk =   0.0208333
        k(   15) = (   0.0416667   0.1202813   0.0000000), wk =   0.0416667
        k(   16) = (   0.0416667   0.1683938   0.0000000), wk =   0.0416667
        k(   17) = (   0.0416667   0.2165064   0.0000000), wk =   0.0416667
        k(   18) = (   0.0416667   0.2646189   0.0000000), wk =   0.0416667
        k(   19) = (   0.0416667   0.3127314   0.0000000), wk =   0.0416667
        k(   20) = (   0.0416667   0.3608439   0.0000000), wk =   0.0416667
        k(   21) = (   0.0416667   0.4089564   0.0000000), wk =   0.0416667
        k(   22) = (   0.0416667   0.4570690   0.0000000), wk =   0.0416667
        k(   23) = (   0.0416667   0.5051815   0.0000000), wk =   0.0416667
        k(   24) = (   0.0416667   0.5532940   0.0000000), wk =   0.0416667
        k(   25) = (   0.0833333   0.1443376   0.0000000), wk =   0.0208333
        k(   26) = (   0.0833333   0.1924501   0.0000000), wk =   0.0416667
        k(   27) = (   0.0833333   0.2405626   0.0000000), wk =   0.0416667
        k(   28) = (   0.0833333   0.2886751   0.0000000), wk =   0.0416667
        k(   29) = (   0.0833333   0.3367877   0.0000000), wk =   0.0416667
        k(   30) = (   0.0833333   0.3849002   0.0000000), wk =   0.0416667
        k(   31) = (   0.0833333   0.4330127   0.0000000), wk =   0.0416667
        k(   32) = (   0.0833333   0.4811252   0.0000000), wk =   0.0416667
        k(   33) = (   0.0833333   0.5292377   0.0000000), wk =   0.0416667
        k(   34) = (   0.0833333   0.5773503   0.0000000), wk =   0.0208333
        k(   35) = (   0.1250000   0.2165064   0.0000000), wk =   0.0208333
        k(   36) = (   0.1250000   0.2646189   0.0000000), wk =   0.0416667
        k(   37) = (   0.1250000   0.3127314   0.0000000), wk =   0.0416667
        k(   38) = (   0.1250000   0.3608439   0.0000000), wk =   0.0416667
        k(   39) = (   0.1250000   0.4089564   0.0000000), wk =   0.0416667
        k(   40) = (   0.1250000   0.4570690   0.0000000), wk =   0.0416667
        k(   41) = (   0.1250000   0.5051815   0.0000000), wk =   0.0416667
        k(   42) = (   0.1250000   0.5532940   0.0000000), wk =   0.0416667
        k(   43) = (   0.1666667   0.2886751   0.0000000), wk =   0.0208333
        k(   44) = (   0.1666667   0.3367877   0.0000000), wk =   0.0416667
        k(   45) = (   0.1666667   0.3849002   0.0000000), wk =   0.0416667
        k(   46) = (   0.1666667   0.4330127   0.0000000), wk =   0.0416667
        k(   47) = (   0.1666667   0.4811252   0.0000000), wk =   0.0416667
        k(   48) = (   0.1666667   0.5292377   0.0000000), wk =   0.0416667
        k(   49) = (   0.1666667   0.5773503   0.0000000), wk =   0.0208333
        k(   50) = (   0.2083333   0.3608439   0.0000000), wk =   0.0208333
        k(   51) = (   0.2083333   0.4089564   0.0000000), wk =   0.0416667
        k(   52) = (   0.2083333   0.4570690   0.0000000), wk =   0.0416667
        k(   53) = (   0.2083333   0.5051815   0.0000000), wk =   0.0416667
        k(   54) = (   0.2083333   0.5532940   0.0000000), wk =   0.0416667
        k(   55) = (   0.2500000   0.4330127   0.0000000), wk =   0.0208333
        k(   56) = (   0.2500000   0.4811252   0.0000000), wk =   0.0416667
        k(   57) = (   0.2500000   0.5292377   0.0000000), wk =   0.0416667
        k(   58) = (   0.2500000   0.5773503   0.0000000), wk =   0.0208333
        k(   59) = (   0.2916667   0.5051815   0.0000000), wk =   0.0208333
        k(   60) = (   0.2916667   0.5532940   0.0000000), wk =   0.0416667
        k(   61) = (   0.3333333   0.5773503   0.0000000), wk =   0.0069444

     Dense  grid:   455489 G-vectors     FFT dimensions: (  64,  64, 270)

     Smooth grid:   160939 G-vectors     FFT dimensions: (  45,  45, 192)

     Estimated max dynamical RAM per process >     322.30 MB

     Estimated total dynamical RAM >       1.89 GB

     Initial potential from superposition of free atoms

     starting charge   25.99991, renormalised to   28.00000

     negative rho (up, down):  5.949E-04 0.000E+00
     Starting wfcs are   18 randomized atomic wfcs

     total cpu time spent up to now is        6.1 secs

     Self-consistent Calculation

     iteration #  1     ecut=    60.00 Ry     beta= 0.70
     Davidson diagonalization with overlap
     ethr =  1.00E-02,  avg # of iterations =  8.8

     total cpu time spent up to now is       26.7 secs

     total energy              =    -325.44144002 Ry
     estimated scf accuracy    <       2.49445756 Ry

     iteration #  2     ecut=    60.00 Ry     beta= 0.70
     Davidson diagonalization with overlap
     ethr =  8.91E-03,  avg # of iterations =  2.1

     negative rho (up, down):  8.848E-07 0.000E+00

     total cpu time spent up to now is       43.4 secs

     total energy              =    -326.35723510 Ry
     estimated scf accuracy    <       0.40492769 Ry

     iteration #  3     ecut=    60.00 Ry     beta= 0.70
     Davidson diagonalization with overlap
     ethr =  1.45E-03,  avg # of iterations =  2.1

     negative rho (up, down):  1.861E-05 0.000E+00

     total cpu time spent up to now is       61.8 secs

     total energy              =    -326.41873778 Ry
     estimated scf accuracy    <       0.00679598 Ry

     iteration #  4     ecut=    60.00 Ry     beta= 0.70
     Davidson diagonalization with overlap
     c_bands:  1 eigenvalues not converged
     ethr =  2.43E-05,  avg # of iterations =  8.4

     negative rho (up, down):  7.257E-05 0.000E+00

     total cpu time spent up to now is       82.3 secs

     total energy              =    -326.42082799 Ry
     estimated scf accuracy    <       0.00026181 Ry

     iteration #  5     ecut=    60.00 Ry     beta= 0.70
     Davidson diagonalization with overlap
     ethr =  9.35E-07,  avg # of iterations =  6.1

     negative rho (up, down):  7.926E-05 0.000E+00

     total cpu time spent up to now is       97.7 secs

     total energy              =    -326.42084243 Ry
     estimated scf accuracy    <       0.00003052 Ry

     iteration #  6     ecut=    60.00 Ry     beta= 0.70
     Davidson diagonalization with overlap
     ethr =  1.09E-07,  avg # of iterations =  2.5

     negative rho (up, down):  8.364E-05 0.000E+00

     total cpu time spent up to now is      111.7 secs

     total energy              =    -326.42084844 Ry
     estimated scf accuracy    <       0.00002684 Ry

     iteration #  7     ecut=    60.00 Ry     beta= 0.70
     Davidson diagonalization with overlap
     ethr =  9.59E-08,  avg # of iterations =  2.0

     negative rho (up, down):  8.552E-05 0.000E+00

     total cpu time spent up to now is      125.5 secs

     End of self-consistent calculation

          k = 0.0000 0.0000 0.0000 ( 20025 PWs)   bands (ev):

   -23.5541 -23.5541 -23.4739 -23.4739 -23.4552 -23.3849 -23.2482 -23.2482
   -23.1939 -23.1939 -11.4000  -5.2898  -2.4320  -2.4320  -1.9680  -0.0735
     1.0652   1.0652

          k = 0.0000 0.0481 0.0000 ( 20035 PWs)   bands (ev):

   -23.5549 -23.5548 -23.4750 -23.4727 -23.4535 -23.3838 -23.2507 -23.2505
   -23.1925 -23.1916 -11.3853  -5.3132  -2.7194  -2.4645  -1.6620  -0.0725
     1.0356   1.1210

          k = 0.0000 0.0962 0.0000 ( 20005 PWs)   bands (ev):

   -23.5572 -23.5570 -23.4778 -23.4693 -23.4492 -23.3803 -23.2570 -23.2565
   -23.1893 -23.1859 -11.3413  -5.3919  -3.1046  -2.5551  -1.2267  -0.0729
     0.9811   1.2805

          k = 0.0000 0.1443 0.0000 ( 20065 PWs)   bands (ev):

   -23.5603 -23.5601 -23.4818 -23.4641 -23.4435 -23.3745 -23.2655 -23.2647
   -23.1855 -23.1784 -11.2681  -5.5465  -3.4125  -2.6868  -0.8629  -0.0835
     0.9867   1.5236

          k = 0.0000 0.1925 0.0000 ( 20113 PWs)   bands (ev):

   -23.5636 -23.5634 -23.4867 -23.4580 -23.4377 -23.3666 -23.2748 -23.2737
   -23.1822 -23.1704 -11.1665  -5.7926  -3.6054  -2.8408  -0.6618  -0.1077
     1.1336   2.1779

          k = 0.0000 0.2406 0.0000 ( 20071 PWs)   bands (ev):

   -23.5671 -23.5658 -23.4923 -23.4515 -23.4329 -23.3569 -23.2841 -23.2824
   -23.1800 -23.1626 -11.0371  -6.1207  -3.6839  -3.0012  -0.6476  -0.1389
     1.3966   2.2863

          k = 0.0000 0.2887 0.0000 ( 20087 PWs)   bands (ev):

   -23.5703 -23.5673 -23.4984 -23.4451 -23.4295 -23.3459 -23.2930 -23.2901
   -23.1793 -23.1553 -10.8814  -6.5006  -3.6731  -3.1562  -0.7509  -0.1897
     1.6391   2.4632

          k = 0.0000 0.3368 0.0000 ( 20109 PWs)   bands (ev):

   -23.5730 -23.5675 -23.5050 -23.4392 -23.4276 -23.3347 -23.3010 -23.2959
   -23.1799 -23.1488 -10.7019  -6.9015  -3.6011  -3.2973  -0.9028  -0.2729
     1.7974   2.6675

          k = 0.0000 0.3849 0.0000 ( 20145 PWs)   bands (ev):

   -23.5752 -23.5665 -23.5117 -23.4340 -23.4270 -23.3249 -23.3079 -23.2987
   -23.1819 -23.1433 -10.5028  -7.2991  -3.4907  -3.4188  -1.0710  -0.3798
     1.9306   2.8826

          k = 0.0000 0.4330 0.0000 ( 20161 PWs)   bands (ev):

   -23.5769 -23.5643 -23.5184 -23.4298 -23.4273 -23.3194 -23.3135 -23.2966
   -23.1847 -23.1389 -10.2923  -7.6729  -3.5166  -3.3617  -1.2399  -0.4897
     2.0795   3.1004

          k = 0.0000 0.4811 0.0000 ( 20157 PWs)   bands (ev):

   -23.5781 -23.5614 -23.5246 -23.4280 -23.4268 -23.3181 -23.3176 -23.2909
   -23.1878 -23.1357 -10.0871  -7.9988  -3.5882  -3.2354  -1.3934  -0.5814
     2.2439   3.2778

          k = 0.0000 0.5292 0.0000 ( 20142 PWs)   bands (ev):

   -23.5788 -23.5585 -23.5295 -23.4286 -23.4250 -23.3201 -23.3181 -23.2858
   -23.1903 -23.1338  -9.9217  -8.2381  -3.6318  -3.1388  -1.5065  -0.6408
     2.3934   3.3335

          k = 0.0000-0.5774 0.0000 ( 20152 PWs)   bands (ev):

   -23.5790 -23.5572 -23.5314 -23.4288 -23.4244 -23.3209 -23.3182 -23.2838
   -23.1913 -23.1331  -9.8542  -8.3305  -3.6465  -3.1018  -1.5492  -0.6612
     2.4603   3.3707

          k = 0.0417 0.0722 0.0000 ( 20017 PWs)   bands (ev):

   -23.5564 -23.5564 -23.4768 -23.4705 -23.4505 -23.3814 -23.2551 -23.2545
   -23.1904 -23.1875 -11.3559  -5.3643  -3.0044  -2.5303  -1.3366  -0.0722
     0.9839   1.2373

          k = 0.0417 0.1203 0.0000 ( 20039 PWs)   bands (ev):

   -23.5592 -23.5589 -23.4800 -23.4665 -23.4453 -23.3768 -23.2626 -23.2614
   -23.1873 -23.1807 -11.2973  -5.4813  -3.3102  -2.6514  -0.9554  -0.0786
     0.9313   1.4592

          k = 0.0417 0.1684 0.0000 ( 20081 PWs)   bands (ev):

   -23.5628 -23.5617 -23.4844 -23.4613 -23.4392 -23.3701 -23.2714 -23.2698
   -23.1842 -23.1728 -11.2099  -5.6833  -3.5363  -2.8053  -0.6599  -0.1007
     0.9713   1.7546

          k = 0.0417 0.2165 0.0000 ( 20075 PWs)   bands (ev):

   -23.5666 -23.5641 -23.4897 -23.4553 -23.4334 -23.3615 -23.2805 -23.2786
   -23.1820 -23.1647 -11.0943  -5.9728  -3.6556  -2.9723  -0.5454  -0.1282
     1.1636   2.0728

          k = 0.0417 0.2646 0.0000 ( 20107 PWs)   bands (ev):

   -23.5701 -23.5658 -23.4956 -23.4492 -23.4286 -23.3514 -23.2893 -23.2869
   -23.1809 -23.1570 -10.9516  -6.3280  -3.6798  -3.1367  -0.6066  -0.1534
     1.4460   2.2788

          k = 0.0417 0.3127 0.0000 ( 20105 PWs)   bands (ev):

   -23.5732 -23.5665 -23.5020 -23.4433 -23.4253 -23.3405 -23.2975 -23.2936
   -23.1813 -23.1499 -10.7837  -6.7180  -3.6369  -3.2854  -0.7541  -0.2028
     1.6890   2.4847

          k = 0.0417 0.3608 0.0000 ( 20127 PWs)   bands (ev):

   -23.5758 -23.5660 -23.5086 -23.4381 -23.4235 -23.3303 -23.3048 -23.2979
   -23.1831 -23.1437 -10.5938  -7.1163  -3.5689  -3.3930  -0.9331  -0.2818
     1.8582   2.7138

          k = 0.0417 0.4090 0.0000 ( 20135 PWs)   bands (ev):

   -23.5778 -23.5644 -23.5154 -23.4337 -23.4229 -23.3229 -23.3109 -23.2981
   -23.1859 -23.1386 -10.3875  -7.5016  -3.5876  -3.3622  -1.1210  -0.3749
     2.0089   2.8978

          k = 0.0417 0.4571 0.0000 ( 20146 PWs)   bands (ev):

   -23.5793 -23.5618 -23.5218 -23.4304 -23.4231 -23.3201 -23.3153 -23.2936
   -23.1893 -23.1346 -10.1764  -7.8532  -3.6593  -3.2430  -1.3017  -0.4620
     2.1681   3.0220

          k = 0.0417 0.5052 0.0000 ( 20148 PWs)   bands (ev):

   -23.5802 -23.5588 -23.5275 -23.4281 -23.4235 -23.3203 -23.3178 -23.2879
   -23.1925 -23.1319  -9.9846  -8.1413  -3.7144  -3.1271  -1.4530  -0.5275
     2.3231   3.1083

          k = 0.0417 0.5533 0.0000 ( 20150 PWs)   bands (ev):

   -23.5807 -23.5565 -23.5311 -23.4269 -23.4240 -23.3212 -23.3186 -23.2841
   -23.1944 -23.1306  -9.8596  -8.3152  -3.7430  -3.0544  -1.5430  -0.5620
     2.4281   3.2070

          k = 0.0833 0.1443 0.0000 ( 20061 PWs)   bands (ev):

   -23.5625 -23.5611 -23.4834 -23.4629 -23.4394 -23.3714 -23.2702 -23.2683
   -23.1854 -23.1733 -11.2244  -5.6469  -3.5014  -2.8095  -0.6323  -0.1011
     0.8745   1.7564

          k = 0.0833 0.1925 0.0000 ( 20087 PWs)   bands (ev):

   -23.5665 -23.5631 -23.4880 -23.4583 -23.4326 -23.3642 -23.2787 -23.2763
   -23.1840 -23.1650 -11.1230  -5.8958  -3.6216  -2.9964  -0.3761  -0.1441
     0.9118   2.1018

          k = 0.0833 0.2406 0.0000 ( 20121 PWs)   bands (ev):

   -23.5705 -23.5645 -23.4935 -23.4531 -23.4262 -23.3557 -23.2870 -23.2844
   -23.1837 -23.1567 -10.9940  -6.2155  -3.6612  -3.1859  -0.3676  -0.1163
     1.1095   2.2361

          k = 0.0833 0.2887 0.0000 ( 20106 PWs)   bands (ev):

   -23.5744 -23.5650 -23.4997 -23.4477 -23.4209 -23.3462 -23.2950 -23.2916
   -23.1846 -23.1488 -10.8386  -6.5809  -3.6408  -3.3547  -0.5281  -0.0810
     1.4147   2.3184

          k = 0.0833 0.3368 0.0000 ( 20114 PWs)   bands (ev):

   -23.5777 -23.5646 -23.5062 -23.4424 -23.4173 -23.3368 -23.3022 -23.2967
   -23.1869 -23.1417 -10.6594  -6.9665  -3.6319  -3.4401  -0.7324  -0.0975
     1.7090   2.4651

          k = 0.0833 0.3849 0.0000 ( 20126 PWs)   bands (ev):

   -23.5804 -23.5632 -23.5129 -23.4375 -23.4154 -23.3290 -23.3084 -23.2983
   -23.1902 -23.1355 -10.4603  -7.3509  -3.7226  -3.3652  -0.9525  -0.1447
     1.9323   2.6237

          k = 0.0833 0.4330 0.0000 ( 20149 PWs)   bands (ev):

   -23.5824 -23.5609 -23.5194 -23.4330 -23.4153 -23.3248 -23.3133 -23.2955
   -23.1944 -23.1306 -10.2491  -7.7149  -3.8233  -3.2323  -1.1719  -0.2020
     2.1099   2.7239

          k = 0.0833 0.4811 0.0000 ( 20151 PWs)   bands (ev):

   -23.5838 -23.5579 -23.5254 -23.4290 -23.4166 -23.3234 -23.3170 -23.2899
   -23.1986 -23.1270 -10.0422  -8.0354  -3.9006  -3.0927  -1.3705  -0.2535
     2.2557   2.8118

          k = 0.0833 0.5292 0.0000 ( 20157 PWs)   bands (ev):

   -23.5847 -23.5551 -23.5301 -23.4254 -23.4188 -23.3230 -23.3193 -23.2849
   -23.2020 -23.1248  -9.8739  -8.2733  -3.9481  -2.9810  -1.5176  -0.2883
     2.3475   2.9466

          k = 0.0833 0.5774 0.0000 ( 20154 PWs)   bands (ev):

   -23.5849 -23.5539 -23.5320 -23.4230 -23.4208 -23.3229 -23.3202 -23.2830
   -23.2033 -23.1240  -9.8046  -8.3661  -3.9641  -2.9366  -1.5739  -0.3006
     2.3760   3.0674

          k = 0.1250 0.2165 0.0000 ( 20099 PWs)   bands (ev):

   -23.5707 -23.5640 -23.4927 -23.4546 -23.4251 -23.3573 -23.2863 -23.2835
   -23.1849 -23.1564 -11.0081  -6.1763  -3.6466  -3.2184  -0.2433  -0.0766
     0.9147   2.2481

          k = 0.1250 0.2646 0.0000 ( 20119 PWs)   bands (ev):

   -23.5750 -23.5642 -23.4983 -23.4502 -23.4177 -23.3498 -23.2937 -23.2904
   -23.1870 -23.1478 -10.8662  -6.5067  -3.6184  -3.4342  -0.3884   0.1190
     1.0749   2.2971

          k = 0.1250 0.3127 0.0000 ( 20122 PWs)   bands (ev):

   -23.5791 -23.5636 -23.5046 -23.4453 -23.4115 -23.3423 -23.3005 -23.2957
   -23.1902 -23.1397 -10.6990  -6.8663  -3.6709  -3.5018  -0.5836   0.1918
     1.3864   2.3621

          k = 0.1250 0.3608 0.0000 ( 20112 PWs)   bands (ev):

   -23.5827 -23.5621 -23.5111 -23.4402 -23.4074 -23.3359 -23.3066 -23.2980
   -23.1946 -23.1324 -10.5094  -7.2358  -3.8394  -3.3881  -0.8089   0.1955
     1.7363   2.4255

          k = 0.1250 0.4090 0.0000 ( 20146 PWs)   bands (ev):

   -23.5856 -23.5599 -23.5176 -23.4351 -23.4057 -23.3316 -23.3118 -23.2964
   -23.1999 -23.1263 -10.3027  -7.5979  -3.9837  -3.2406  -1.0460   0.1715
     2.0310   2.4489

          k = 0.1250 0.4571 0.0000 ( 20145 PWs)   bands (ev):

   -23.5878 -23.5570 -23.5237 -23.4302 -23.4063 -23.3291 -23.3162 -23.2916
   -23.2056 -23.1216 -10.0895  -7.9340  -4.0940  -3.0812  -1.2756   0.1400
     2.2090   2.5115

          k = 0.1250 0.5052 0.0000 ( 20141 PWs)   bands (ev):

   -23.5892 -23.5540 -23.5289 -23.4255 -23.4085 -23.3274 -23.3197 -23.2860
   -23.2107 -23.1183  -9.8927  -8.2153  -4.1683  -2.9340  -1.4713   0.1128
     2.2433   2.7036

          k = 0.1250 0.5533 0.0000 ( 20145 PWs)   bands (ev):

   -23.5899 -23.5517 -23.5322 -23.4219 -23.4111 -23.3257 -23.3223 -23.2824
   -23.2138 -23.1167  -9.7615  -8.3896  -4.2056  -2.8384  -1.5917   0.0974
     2.2378   2.9215

          k = 0.1667 0.2887 0.0000 ( 20113 PWs)   bands (ev):

   -23.5796 -23.5632 -23.5040 -23.4463 -23.4092 -23.3446 -23.2999 -23.2953
   -23.1915 -23.1389 -10.7122  -6.8308  -3.6842  -3.5281  -0.5358   0.4078
     1.1431   2.3682

          k = 0.1667 0.3368 0.0000 ( 20110 PWs)   bands (ev):

   -23.5840 -23.5616 -23.5102 -23.4417 -23.4018 -23.3409 -23.3057 -23.2977
   -23.1972 -23.1306 -10.5341  -7.1726  -3.9074  -3.4051  -0.7339   0.5660
     1.3982   2.4314

          k = 0.1667 0.3849 0.0000 ( 20115 PWs)   bands (ev):

   -23.5878 -23.5592 -23.5164 -23.4365 -23.3968 -23.3386 -23.3109 -23.2967
   -23.2039 -23.1233 -10.3355  -7.5182  -4.0971  -3.2534  -0.9601   0.6072
     1.7748   2.3558

          k = 0.1667 0.4330 0.0000 ( 20139 PWs)   bands (ev):

   -23.5909 -23.5564 -23.5224 -23.4311 -23.3949 -23.3368 -23.3156 -23.2926
   -23.2111 -23.1173 -10.1229  -7.8529  -4.2474  -3.0840  -1.1953   0.6066
     2.1474   2.2444

          k = 0.1667 0.4811 0.0000 ( 20145 PWs)   bands (ev):

   -23.5931 -23.5533 -23.5277 -23.4257 -23.3959 -23.3344 -23.3198 -23.2871
   -23.2182 -23.1129  -9.9107  -8.1563  -4.3557  -2.9129  -1.4175   0.5952
     2.1360   2.4949

          k = 0.1667 0.5292 0.0000 ( 20147 PWs)   bands (ev):

   -23.5945 -23.5504 -23.5319 -23.4212 -23.3985 -23.3313 -23.3237 -23.2822
   -23.2237 -23.1102  -9.7323  -8.3910  -4.4209  -2.7706  -1.5920   0.5849
     2.0744   2.7897

          k = 0.1667 0.5774 0.0000 ( 20135 PWs)   bands (ev):

   -23.5950 -23.5491 -23.5337 -23.4192 -23.3999 -23.3286 -23.3267 -23.2802
   -23.2259 -23.1092  -9.6558  -8.4865  -4.4427  -2.7110  -1.6627   0.5810
     2.0532   2.9560

          k = 0.2083 0.3608 0.0000 ( 20119 PWs)   bands (ev):

   -23.5885 -23.5590 -23.5160 -23.4369 -23.3928 -23.3418 -23.3106 -23.2967
   -23.2053 -23.1223 -10.3465  -7.4898  -4.1381  -3.2589  -0.9300   0.8988
     1.5194   2.3982

          k = 0.2083 0.4090 0.0000 ( 20133 PWs)   bands (ev):

   -23.5925 -23.5561 -23.5217 -23.4316 -23.3862 -23.3435 -23.3153 -23.2931
   -23.2141 -23.1151 -10.1401  -7.8074  -4.3318  -3.0886  -1.1497   1.0560
     1.8369   2.2262

          k = 0.2083 0.4571 0.0000 ( 20137 PWs)   bands (ev):

   -23.5957 -23.5529 -23.5270 -23.4259 -23.3835 -23.3430 -23.3199 -23.2878
   -23.2230 -23.1094  -9.9233  -8.1122  -4.4806  -2.9060  -1.3750   1.1021
     2.0514   2.2657

          k = 0.2083 0.5052 0.0000 ( 20163 PWs)   bands (ev):

   -23.5979 -23.5498 -23.5315 -23.4207 -23.3845 -23.3397 -23.3246 -23.2823
   -23.2311 -23.1054  -9.7154  -8.3811  -4.5808  -2.7309  -1.5814   1.1172
     1.9450   2.6393

          k = 0.2083 0.5533 0.0000 ( 20157 PWs)   bands (ev):

   -23.5991 -23.5474 -23.5345 -23.4172 -23.3866 -23.3348 -23.3295 -23.2784
   -23.2363 -23.1034  -9.5671  -8.5606  -4.6312  -2.6077  -1.7209   1.1228
     1.8859   2.9299

          k = 0.2500 0.4330 0.0000 ( 20149 PWs)   bands (ev):

   -23.5966 -23.5528 -23.5267 -23.4260 -23.3769 -23.3483 -23.3199 -23.2881
   -23.2247 -23.1082  -9.9279  -8.0959  -4.5244  -2.9047  -1.3590   1.4217
     2.0047   2.0690

          k = 0.2500 0.4811 0.0000 ( 20153 PWs)   bands (ev):

   -23.5998 -23.5495 -23.5312 -23.4205 -23.3719 -23.3492 -23.3250 -23.2825
   -23.2349 -23.1030  -9.7080  -8.3720  -4.6659  -2.7131  -1.5716   1.5831
     1.9219   2.3747

          k = 0.2500 0.5292 0.0000 ( 20133 PWs)   bands (ev):

   -23.6017 -23.5466 -23.5349 -23.4161 -23.3724 -23.3444 -23.3308 -23.2771
   -23.2434 -23.0998  -9.5068  -8.6079  -4.7521  -2.5390  -1.7595   1.6500
     1.8078   2.7811

          k = 0.2500 0.5774 0.0000 ( 20123 PWs)   bands (ev):

   -23.6024 -23.5451 -23.5366 -23.4143 -23.3734 -23.3376 -23.3373 -23.2745
   -23.2471 -23.0987  -9.4084  -8.7180  -4.7810  -2.4551  -1.8481   1.6930
     1.7432   2.9971

          k = 0.2917 0.5052 0.0000 ( 20137 PWs)   bands (ev):

   -23.6026 -23.5463 -23.5349 -23.4157 -23.3620 -23.3532 -23.3312 -23.2766
   -23.2459 -23.0985  -9.4853  -8.6243  -4.7938  -2.5146  -1.7731   1.7098
     2.0977   2.5382

          k = 0.2917 0.5533 0.0000 ( 20132 PWs)   bands (ev):

   -23.6041 -23.5436 -23.5379 -23.4128 -23.3602 -23.3477 -23.3389 -23.2710
   -23.2543 -23.0962  -9.2884  -8.8360  -4.8588  -2.3416  -1.9478   1.6673
     2.2334   2.8329

          k = 0.3333 0.5774 0.0000 ( 20133 PWs)   bands (ev):

   -23.6049 -23.5408 -23.5408 -23.4115 -23.3492 -23.3489 -23.3484 -23.2636
   -23.2635 -23.0950  -9.0637  -9.0636  -4.8951  -2.1432  -2.1430   1.6343
     2.6640   2.6642

     the Fermi energy is    -2.1358 ev

!    total energy              =    -326.42085241 Ry
     estimated scf accuracy    <       0.00000050 Ry
     smearing contrib. (-TS)   =      -0.00708694 Ry
     internal energy E=F+TS    =    -326.41376547 Ry

     The total energy is F=E-TS. E is the sum of the following terms:
     one-electron contribution =    -856.40426120 Ry
     hartree contribution      =     435.87567529 Ry
     xc contribution           =     -95.00664489 Ry
     ewald contribution        =     189.12146532 Ry

     convergence has been achieved in   7 iterations

     Writing output data file ../tmp/stanene.save/

     init_run     :      5.81s CPU      6.08s WALL (       1 calls)
     electrons    :    115.29s CPU    119.37s WALL (       1 calls)

     Called by init_run:
     wfcinit      :      4.54s CPU      4.68s WALL (       1 calls)
     potinit      :      0.37s CPU      0.39s WALL (       1 calls)
     hinit0       :      0.42s CPU      0.42s WALL (       1 calls)

     Called by electrons:
     c_bands      :     98.02s CPU    100.45s WALL (       7 calls)
     sum_band     :     13.34s CPU     14.49s WALL (       7 calls)
     v_of_rho     :      1.41s CPU      1.51s WALL (       8 calls)
     newd         :      2.49s CPU      2.96s WALL (       8 calls)
     mix_rho      :      0.29s CPU      0.30s WALL (       7 calls)

     Called by c_bands:
     init_us_2    :      0.87s CPU      0.88s WALL (     915 calls)
     cegterg      :     94.74s CPU     97.14s WALL (     427 calls)

     Called by *egterg:
     cdiaghg      :      1.47s CPU      1.48s WALL (    2380 calls)
     h_psi        :     60.34s CPU     62.74s WALL (    2441 calls)
     s_psi        :      4.58s CPU      4.60s WALL (    2441 calls)
     g_psi        :      0.42s CPU      0.42s WALL (    1953 calls)

     Called by h_psi:
     h_psi:calbec :      7.55s CPU      7.84s WALL (    2441 calls)
     vloc_psi     :     47.93s CPU     49.96s WALL (    2441 calls)
     add_vuspsi   :      4.62s CPU      4.70s WALL (    2441 calls)

     General routines
     calbec       :      9.85s CPU     10.19s WALL (    2868 calls)
     fft          :      1.57s CPU      1.61s WALL (     102 calls)
     ffts         :      0.04s CPU      0.04s WALL (      15 calls)
     fftw         :     50.36s CPU     52.34s WALL (   53988 calls)
     interpolate  :      0.11s CPU      0.11s WALL (       8 calls)

     Parallel routines
     fft_scatt_xy :      4.78s CPU      5.07s WALL (   54105 calls)
     fft_scatt_yz :     26.31s CPU     27.05s WALL (   54105 calls)

     PWSCF        :   2m 1.28s CPU   2m 5.90s WALL


   This run was terminated on:  23: 2:13  23Jan2024            

=------------------------------------------------------------------------------=
   JOB DONE.
=------------------------------------------------------------------------------=
