
     Program PWSCF v.6.7MaX starts on 23Jan2024 at 22:51:12 

     This program is part of the open-source Quantum ESPRESSO suite
     for quantum simulation of materials; please cite
         "P. Giannozzi et al., J. Phys.:Condens. Matter 21 395502 (2009);
         "P. Giannozzi et al., J. Phys.:Condens. Matter 29 465901 (2017);
          URL http://www.quantum-espresso.org", 
     in publications or presentations arising from this work. More details at
     http://www.quantum-espresso.org/quote

     Parallel version (MPI), running on     6 processors

     MPI processes distributed on     1 nodes
     R & G space division:  proc/nbgrp/npool/nimage =       6
     Waiting for input...
     Reading input from standard input

     Current dimensions of program PWSCF are:
     Max number of different atomic species (ntypx) = 10
     Max number of k-points (npk) =  40000
     Max angular momentum in pseudopotentials (lmaxx) =  3

     Subspace diagonalization in iterative solution of the eigenvalue problem:
     one sub-group per band group will be used
     scalapack distributed-memory algorithm (size of sub-group:  2*  2 procs)


     Parallelization info
     --------------------
     sticks:   dense  smooth     PW     G-vecs:    dense   smooth      PW
     Min         431     214     61                75909    26818    4015
     Max         432     215     62                75924    26841    4025
     Sum        2587    1285    367               455489   160939   24117



     bravais-lattice index     =            4
     lattice parameter (alat)  =       8.8506  a.u.
     unit-cell volume          =    2563.9136 (a.u.)^3
     number of atoms/cell      =            2
     number of atomic types    =            1
     number of electrons       =        28.00
     number of Kohn-Sham states=           18
     kinetic-energy cutoff     =      60.0000  Ry
     charge density cutoff     =     480.0000  Ry
     scf convergence threshold =      1.0E-06
     mixing beta               =       0.7000
     number of iterations used =            8  plain     mixing
     Exchange-correlation= SLA  PW   PBE  PBE
                           (   1   4   3   4   0   0   0)

     celldm(1)=   8.850584  celldm(2)=   0.000000  celldm(3)=   4.270286
     celldm(4)=   0.000000  celldm(5)=   0.000000  celldm(6)=   0.000000

     crystal axes: (cart. coord. in units of alat)
               a(1) = (   1.000000   0.000000   0.000000 )  
               a(2) = (  -0.500000   0.866025   0.000000 )  
               a(3) = (   0.000000   0.000000   4.270286 )  

     reciprocal axes: (cart. coord. in units 2 pi/alat)
               b(1) = (  1.000000  0.577350 -0.000000 )  
               b(2) = (  0.000000  1.154701  0.000000 )  
               b(3) = (  0.000000 -0.000000  0.234176 )  


     PseudoPot. # 1 for Sn read from file:
     ../pseudo/Sn_pbe_v1.uspp.F.UPF
     MD5 check sum: 4cf58ce39ec5d5d420df3dd08604eb00
     Pseudo is Ultrasoft + core correction, Zval = 14.0
     Generated by new atomic code, or converted to UPF format
     Using radial grid of  891 points,  6 beta functions with: 
                l(1) =   0
                l(2) =   0
                l(3) =   1
                l(4) =   1
                l(5) =   2
                l(6) =   2
     Q(r) pseudized with  6 coefficients,  rinner =    1.200   1.200   1.200
                                                       1.200   1.200

     atomic species   valence    mass     pseudopotential
        Sn            14.00   118.71000     Sn( 1.00)

      6 Sym. Ops. (no inversion) found



   Cartesian axes

     site n.     atom                  positions (alat units)
         1           Sn  tau(   1) = (   0.0000000   0.5773503   2.1351428  )
         2           Sn  tau(   2) = (   0.5000000   0.2886751   1.9552503  )

     number of k points=    61  Gaussian smearing, width (Ry)=  0.0200
                       cart. coord. in units 2pi/alat
        k(    1) = (   0.0000000   0.0000000   0.0000000), wk =   0.0034722
        k(    2) = (   0.0000000   0.0481125   0.0000000), wk =   0.0208333
        k(    3) = (   0.0000000   0.0962250   0.0000000), wk =   0.0208333
        k(    4) = (   0.0000000   0.1443376   0.0000000), wk =   0.0208333
        k(    5) = (   0.0000000   0.1924501   0.0000000), wk =   0.0208333
        k(    6) = (   0.0000000   0.2405626   0.0000000), wk =   0.0208333
        k(    7) = (   0.0000000   0.2886751   0.0000000), wk =   0.0208333
        k(    8) = (   0.0000000   0.3367877   0.0000000), wk =   0.0208333
        k(    9) = (   0.0000000   0.3849002   0.0000000), wk =   0.0208333
        k(   10) = (   0.0000000   0.4330127   0.0000000), wk =   0.0208333
        k(   11) = (   0.0000000   0.4811252   0.0000000), wk =   0.0208333
        k(   12) = (   0.0000000   0.5292377   0.0000000), wk =   0.0208333
        k(   13) = (   0.0000000  -0.5773503   0.0000000), wk =   0.0104167
        k(   14) = (   0.0416667   0.0721688   0.0000000), wk =   0.0208333
        k(   15) = (   0.0416667   0.1202813   0.0000000), wk =   0.0416667
        k(   16) = (   0.0416667   0.1683938   0.0000000), wk =   0.0416667
        k(   17) = (   0.0416667   0.2165064   0.0000000), wk =   0.0416667
        k(   18) = (   0.0416667   0.2646189   0.0000000), wk =   0.0416667
        k(   19) = (   0.0416667   0.3127314   0.0000000), wk =   0.0416667
        k(   20) = (   0.0416667   0.3608439   0.0000000), wk =   0.0416667
        k(   21) = (   0.0416667   0.4089564   0.0000000), wk =   0.0416667
        k(   22) = (   0.0416667   0.4570690   0.0000000), wk =   0.0416667
        k(   23) = (   0.0416667   0.5051815   0.0000000), wk =   0.0416667
        k(   24) = (   0.0416667   0.5532940   0.0000000), wk =   0.0416667
        k(   25) = (   0.0833333   0.1443376   0.0000000), wk =   0.0208333
        k(   26) = (   0.0833333   0.1924501   0.0000000), wk =   0.0416667
        k(   27) = (   0.0833333   0.2405626   0.0000000), wk =   0.0416667
        k(   28) = (   0.0833333   0.2886751   0.0000000), wk =   0.0416667
        k(   29) = (   0.0833333   0.3367877   0.0000000), wk =   0.0416667
        k(   30) = (   0.0833333   0.3849002   0.0000000), wk =   0.0416667
        k(   31) = (   0.0833333   0.4330127   0.0000000), wk =   0.0416667
        k(   32) = (   0.0833333   0.4811252   0.0000000), wk =   0.0416667
        k(   33) = (   0.0833333   0.5292377   0.0000000), wk =   0.0416667
        k(   34) = (   0.0833333   0.5773503   0.0000000), wk =   0.0208333
        k(   35) = (   0.1250000   0.2165064   0.0000000), wk =   0.0208333
        k(   36) = (   0.1250000   0.2646189   0.0000000), wk =   0.0416667
        k(   37) = (   0.1250000   0.3127314   0.0000000), wk =   0.0416667
        k(   38) = (   0.1250000   0.3608439   0.0000000), wk =   0.0416667
        k(   39) = (   0.1250000   0.4089564   0.0000000), wk =   0.0416667
        k(   40) = (   0.1250000   0.4570690   0.0000000), wk =   0.0416667
        k(   41) = (   0.1250000   0.5051815   0.0000000), wk =   0.0416667
        k(   42) = (   0.1250000   0.5532940   0.0000000), wk =   0.0416667
        k(   43) = (   0.1666667   0.2886751   0.0000000), wk =   0.0208333
        k(   44) = (   0.1666667   0.3367877   0.0000000), wk =   0.0416667
        k(   45) = (   0.1666667   0.3849002   0.0000000), wk =   0.0416667
        k(   46) = (   0.1666667   0.4330127   0.0000000), wk =   0.0416667
        k(   47) = (   0.1666667   0.4811252   0.0000000), wk =   0.0416667
        k(   48) = (   0.1666667   0.5292377   0.0000000), wk =   0.0416667
        k(   49) = (   0.1666667   0.5773503   0.0000000), wk =   0.0208333
        k(   50) = (   0.2083333   0.3608439   0.0000000), wk =   0.0208333
        k(   51) = (   0.2083333   0.4089564   0.0000000), wk =   0.0416667
        k(   52) = (   0.2083333   0.4570690   0.0000000), wk =   0.0416667
        k(   53) = (   0.2083333   0.5051815   0.0000000), wk =   0.0416667
        k(   54) = (   0.2083333   0.5532940   0.0000000), wk =   0.0416667
        k(   55) = (   0.2500000   0.4330127   0.0000000), wk =   0.0208333
        k(   56) = (   0.2500000   0.4811252   0.0000000), wk =   0.0416667
        k(   57) = (   0.2500000   0.5292377   0.0000000), wk =   0.0416667
        k(   58) = (   0.2500000   0.5773503   0.0000000), wk =   0.0208333
        k(   59) = (   0.2916667   0.5051815   0.0000000), wk =   0.0208333
        k(   60) = (   0.2916667   0.5532940   0.0000000), wk =   0.0416667
        k(   61) = (   0.3333333   0.5773503   0.0000000), wk =   0.0069444

     Dense  grid:   455489 G-vectors     FFT dimensions: (  64,  64, 270)

     Smooth grid:   160939 G-vectors     FFT dimensions: (  45,  45, 192)

     Estimated max dynamical RAM per process >     322.30 MB

     Estimated total dynamical RAM >       1.89 GB

     Initial potential from superposition of free atoms

     starting charge   25.99991, renormalised to   28.00000

     negative rho (up, down):  5.949E-04 0.000E+00
     Starting wfcs are   18 randomized atomic wfcs

     total cpu time spent up to now is        6.3 secs

     Self-consistent Calculation

     iteration #  1     ecut=    60.00 Ry     beta= 0.70
     Davidson diagonalization with overlap
     ethr =  1.00E-02,  avg # of iterations =  8.8

     negative rho (up, down):  1.040E-05 0.000E+00

     total cpu time spent up to now is       26.8 secs

     total energy              =    -325.45430503 Ry
     estimated scf accuracy    <       2.47420937 Ry

     iteration #  2     ecut=    60.00 Ry     beta= 0.70
     Davidson diagonalization with overlap
     ethr =  8.84E-03,  avg # of iterations =  2.1

     negative rho (up, down):  2.558E-05 0.000E+00

     total cpu time spent up to now is       44.8 secs

     total energy              =    -326.35791916 Ry
     estimated scf accuracy    <       0.38766750 Ry

     iteration #  3     ecut=    60.00 Ry     beta= 0.70
     Davidson diagonalization with overlap
     ethr =  1.38E-03,  avg # of iterations =  2.1

     negative rho (up, down):  5.368E-05 0.000E+00

     total cpu time spent up to now is       61.6 secs

     total energy              =    -326.41681299 Ry
     estimated scf accuracy    <       0.00639226 Ry

     iteration #  4     ecut=    60.00 Ry     beta= 0.70
     Davidson diagonalization with overlap
     c_bands:  1 eigenvalues not converged
     ethr =  2.28E-05,  avg # of iterations =  8.4

     negative rho (up, down):  8.017E-05 0.000E+00

     total cpu time spent up to now is       83.1 secs

     total energy              =    -326.41886041 Ry
     estimated scf accuracy    <       0.00031733 Ry

     iteration #  5     ecut=    60.00 Ry     beta= 0.70
     Davidson diagonalization with overlap
     c_bands:  1 eigenvalues not converged
     c_bands:  1 eigenvalues not converged
     ethr =  1.13E-06,  avg # of iterations =  5.6

     negative rho (up, down):  8.246E-05 0.000E+00

     total cpu time spent up to now is       98.8 secs

     total energy              =    -326.41888890 Ry
     estimated scf accuracy    <       0.00003386 Ry

     iteration #  6     ecut=    60.00 Ry     beta= 0.70
     Davidson diagonalization with overlap
     ethr =  1.21E-07,  avg # of iterations =  2.3

     negative rho (up, down):  8.479E-05 0.000E+00

     total cpu time spent up to now is      114.5 secs

     total energy              =    -326.41889632 Ry
     estimated scf accuracy    <       0.00001858 Ry

     iteration #  7     ecut=    60.00 Ry     beta= 0.70
     Davidson diagonalization with overlap
     ethr =  6.64E-08,  avg # of iterations =  2.0

     negative rho (up, down):  8.562E-05 0.000E+00

     total cpu time spent up to now is      128.3 secs

     End of self-consistent calculation

          k = 0.0000 0.0000 0.0000 ( 20025 PWs)   bands (ev):

   -23.5312 -23.5312 -23.4525 -23.4525 -23.4369 -23.3669 -23.2260 -23.2260
   -23.1704 -23.1704 -11.3770  -5.2765  -2.4078  -2.4078  -1.9472  -0.0660
     1.0878   1.0878

          k = 0.0000 0.0481 0.0000 ( 20035 PWs)   bands (ev):

   -23.5321 -23.5320 -23.4541 -23.4513 -23.4347 -23.3657 -23.2285 -23.2283
   -23.1691 -23.1681 -11.3623  -5.2996  -2.6966  -2.4403  -1.6401  -0.0649
     1.0579   1.1436

          k = 0.0000 0.0962 0.0000 ( 20005 PWs)   bands (ev):

   -23.5345 -23.5341 -23.4576 -23.4479 -23.4296 -23.3620 -23.2349 -23.2344
   -23.1659 -23.1623 -11.3183  -5.3775  -3.0830  -2.5308  -1.2043  -0.0649
     1.0027   1.3030

          k = 0.0000 0.1443 0.0000 ( 20065 PWs)   bands (ev):

   -23.5377 -23.5371 -23.4622 -23.4429 -23.4233 -23.3559 -23.2435 -23.2428
   -23.1621 -23.1547 -11.2452  -5.5306  -3.3925  -2.6625  -0.8404  -0.0749
     1.0072   1.5459

          k = 0.0000 0.1925 0.0000 ( 20113 PWs)   bands (ev):

   -23.5409 -23.5405 -23.4675 -23.4369 -23.4171 -23.3477 -23.2529 -23.2520
   -23.1588 -23.1466 -11.1435  -5.7750  -3.5873  -2.8166  -0.6397  -0.0982
     1.1523   2.1786

          k = 0.0000 0.2406 0.0000 ( 20071 PWs)   bands (ev):

   -23.5438 -23.5436 -23.4733 -23.4306 -23.4119 -23.3376 -23.2623 -23.2612
   -23.1567 -23.1387 -11.0141  -6.1015  -3.6674  -2.9770  -0.6267  -0.1277
     1.4122   2.2892

          k = 0.0000 0.2887 0.0000 ( 20087 PWs)   bands (ev):

   -23.5469 -23.5452 -23.4795 -23.4243 -23.4081 -23.3262 -23.2713 -23.2694
   -23.1559 -23.1313 -10.8585  -6.4803  -3.6577  -3.1320  -0.7314  -0.1764
     1.6497   2.4645

          k = 0.0000 0.3368 0.0000 ( 20109 PWs)   bands (ev):

   -23.5495 -23.5456 -23.4860 -23.4184 -23.4059 -23.3145 -23.2795 -23.2758
   -23.1565 -23.1247 -10.6790  -6.8804  -3.5864  -3.2731  -0.8848  -0.2574
     1.8046   2.6673

          k = 0.0000 0.3849 0.0000 ( 20145 PWs)   bands (ev):

   -23.5516 -23.5447 -23.4927 -23.4134 -23.4050 -23.3044 -23.2865 -23.2792
   -23.1583 -23.1191 -10.4799  -7.2774  -3.4764  -3.3946  -1.0546  -0.3624
     1.9364   2.8825

          k = 0.0000 0.4330 0.0000 ( 20161 PWs)   bands (ev):

   -23.5532 -23.5427 -23.4993 -23.4093 -23.4050 -23.2987 -23.2922 -23.2776
   -23.1611 -23.1146 -10.2695  -7.6508  -3.4925  -3.3476  -1.2250  -0.4705
     2.0849   3.1008

          k = 0.0000 0.4811 0.0000 ( 20157 PWs)   bands (ev):

   -23.5543 -23.5399 -23.5054 -23.4064 -23.4055 -23.2977 -23.2963 -23.2720
   -23.1641 -23.1113 -10.0642  -7.9766  -3.5640  -3.2213  -1.3797  -0.5609
     2.2496   3.2799

          k = 0.0000 0.5292 0.0000 ( 20142 PWs)   bands (ev):

   -23.5549 -23.5371 -23.5102 -23.4059 -23.4046 -23.2988 -23.2980 -23.2668
   -23.1665 -23.1093  -9.8989  -8.2157  -3.6076  -3.1247  -1.4937  -0.6195
     2.3995   3.3367

          k = 0.0000-0.5774 0.0000 ( 20152 PWs)   bands (ev):

   -23.5551 -23.5358 -23.5122 -23.4061 -23.4040 -23.2997 -23.2982 -23.2648
   -23.1674 -23.1087  -9.8315  -8.3080  -3.6223  -3.0876  -1.5367  -0.6397
     2.4668   3.3856

          k = 0.0417 0.0722 0.0000 ( 20017 PWs)   bands (ev):

   -23.5337 -23.5335 -23.4565 -23.4492 -23.4311 -23.3632 -23.2330 -23.2324
   -23.1670 -23.1640 -11.3329  -5.3501  -2.9825  -2.5061  -1.3143  -0.0644
     1.0057   1.2598

          k = 0.0417 0.1203 0.0000 ( 20039 PWs)   bands (ev):

   -23.5364 -23.5361 -23.4603 -23.4453 -23.4252 -23.3584 -23.2406 -23.2394
   -23.1639 -23.1571 -11.2744  -5.4660  -3.2897  -2.6271  -0.9330  -0.0703
     0.9523   1.4815

          k = 0.0417 0.1684 0.0000 ( 20081 PWs)   bands (ev):

   -23.5399 -23.5390 -23.4651 -23.4402 -23.4187 -23.3514 -23.2495 -23.2480
   -23.1608 -23.1491 -11.1869  -5.6664  -3.5175  -2.7811  -0.6375  -0.0915
     0.9910   1.7765

          k = 0.0417 0.2165 0.0000 ( 20075 PWs)   bands (ev):

   -23.5435 -23.5417 -23.4706 -23.4343 -23.4125 -23.3424 -23.2587 -23.2571
   -23.1586 -23.1409 -11.0713  -5.9542  -3.6385  -2.9481  -0.5240  -0.1175
     1.1815   2.0923

          k = 0.0417 0.2646 0.0000 ( 20107 PWs)   bands (ev):

   -23.5469 -23.5436 -23.4766 -23.4283 -23.4074 -23.3318 -23.2677 -23.2658
   -23.1576 -23.1330 -10.9287  -6.3081  -3.6640  -3.1126  -0.5871  -0.1403
     1.4605   2.2900

          k = 0.0417 0.3127 0.0000 ( 20105 PWs)   bands (ev):

   -23.5498 -23.5444 -23.4830 -23.4225 -23.4039 -23.3205 -23.2760 -23.2731
   -23.1579 -23.1258 -10.7608  -6.6972  -3.6217  -3.2615  -0.7363  -0.1874
     1.6987   2.4958

          k = 0.0417 0.3608 0.0000 ( 20127 PWs)   bands (ev):

   -23.5523 -23.5442 -23.4897 -23.4173 -23.4018 -23.3098 -23.2834 -23.2781
   -23.1596 -23.1195 -10.5708  -7.0948  -3.5524  -3.3709  -0.9167  -0.2644
     1.8650   2.7210

          k = 0.0417 0.4090 0.0000 ( 20135 PWs)   bands (ev):

   -23.5541 -23.5427 -23.4963 -23.4129 -23.4010 -23.3019 -23.2896 -23.2790
   -23.1624 -23.1143 -10.3646  -7.4798  -3.5654  -3.3461  -1.1059  -0.3558
     2.0146   2.9054

          k = 0.0417 0.4571 0.0000 ( 20146 PWs)   bands (ev):

   -23.5555 -23.5403 -23.5027 -23.4094 -23.4012 -23.2992 -23.2943 -23.2747
   -23.1657 -23.1102 -10.1536  -7.8311  -3.6358  -3.2283  -1.2878  -0.4417
     2.1738   3.0316

          k = 0.0417 0.5052 0.0000 ( 20148 PWs)   bands (ev):

   -23.5564 -23.5374 -23.5083 -23.4067 -23.4020 -23.2994 -23.2973 -23.2689
   -23.1687 -23.1075  -9.9618  -8.1190  -3.6907  -3.1126  -1.4399  -0.5063
     2.3293   3.1184

          k = 0.0417 0.5533 0.0000 ( 20150 PWs)   bands (ev):

   -23.5568 -23.5352 -23.5118 -23.4047 -23.4031 -23.3000 -23.2986 -23.2651
   -23.1706 -23.1061  -9.8368  -8.2928  -3.7192  -3.0400  -1.5304  -0.5404
     2.4350   3.2174

          k = 0.0833 0.1443 0.0000 ( 20061 PWs)   bands (ev):

   -23.5394 -23.5386 -23.4640 -23.4418 -23.4189 -23.3527 -23.2484 -23.2464
   -23.1620 -23.1496 -11.2014  -5.6303  -3.4823  -2.7853  -0.6098  -0.0921
     0.8946   1.7784

          k = 0.0833 0.1925 0.0000 ( 20087 PWs)   bands (ev):

   -23.5433 -23.5407 -23.4688 -23.4373 -23.4118 -23.3452 -23.2570 -23.2546
   -23.1607 -23.1412 -11.1000  -5.8776  -3.6041  -2.9723  -0.3541  -0.1338
     0.9306   2.1215

          k = 0.0833 0.2406 0.0000 ( 20121 PWs)   bands (ev):

   -23.5472 -23.5422 -23.4745 -23.4322 -23.4051 -23.3362 -23.2655 -23.2630
   -23.1604 -23.1327 -10.9710  -6.1960  -3.6450  -3.1618  -0.3509  -0.1001
     1.1268   2.2428

          k = 0.0833 0.2887 0.0000 ( 20106 PWs)   bands (ev):

   -23.5509 -23.5430 -23.4807 -23.4269 -23.3995 -23.3262 -23.2736 -23.2707
   -23.1614 -23.1247 -10.8157  -6.5604  -3.6251  -3.3311  -0.5129  -0.0629
     1.4294   2.3280

          k = 0.0833 0.3368 0.0000 ( 20114 PWs)   bands (ev):

   -23.5541 -23.5428 -23.4872 -23.4216 -23.3957 -23.3162 -23.2810 -23.2765
   -23.1636 -23.1174 -10.6364  -6.9452  -3.6127  -3.4206  -0.7178  -0.0785
     1.7193   2.4779

          k = 0.0833 0.3849 0.0000 ( 20126 PWs)   bands (ev):

   -23.5567 -23.5415 -23.4939 -23.4167 -23.3937 -23.3079 -23.2873 -23.2789
   -23.1669 -23.1112 -10.4374  -7.3292  -3.6999  -3.3497  -0.9385  -0.1247
     1.9393   2.6366

          k = 0.0833 0.4330 0.0000 ( 20149 PWs)   bands (ev):

   -23.5586 -23.5394 -23.5003 -23.4122 -23.3934 -23.3034 -23.2924 -23.2765
   -23.1710 -23.1062 -10.2263  -7.6929  -3.8000  -3.2176  -1.1584  -0.1812
     2.1158   2.7359

          k = 0.0833 0.4811 0.0000 ( 20151 PWs)   bands (ev):

   -23.5599 -23.5367 -23.5062 -23.4081 -23.3945 -23.3022 -23.2963 -23.2709
   -23.1752 -23.1025 -10.0194  -8.0131  -3.8770  -3.0784  -1.3574  -0.2321
     2.2623   2.8225

          k = 0.0833 0.5292 0.0000 ( 20157 PWs)   bands (ev):

   -23.5607 -23.5340 -23.5108 -23.4045 -23.3965 -23.3019 -23.2989 -23.2659
   -23.1784 -23.1003  -9.8512  -8.2509  -3.9245  -2.9667  -1.5049  -0.2665
     2.3555   2.9559

          k = 0.0833 0.5774 0.0000 ( 20154 PWs)   bands (ev):

   -23.5609 -23.5327 -23.5127 -23.4026 -23.3980 -23.3016 -23.3000 -23.2639
   -23.1797 -23.0995  -9.7818  -8.3437  -3.9405  -2.9223  -1.5613  -0.2786
     2.3846   3.0772

          k = 0.1250 0.2165 0.0000 ( 20099 PWs)   bands (ev):

   -23.5474 -23.5418 -23.4736 -23.4338 -23.4039 -23.3378 -23.2648 -23.2620
   -23.1616 -23.1324 -10.9851  -6.1569  -3.6304  -3.1943  -0.2324  -0.0540
     0.9324   2.2524

          k = 0.1250 0.2646 0.0000 ( 20119 PWs)   bands (ev):

   -23.5516 -23.5422 -23.4794 -23.4294 -23.3964 -23.3298 -23.2724 -23.2693
   -23.1638 -23.1237 -10.8432  -6.4864  -3.6029  -3.4103  -0.3765   0.1408
     1.0916   2.3037

          k = 0.1250 0.3127 0.0000 ( 20122 PWs)   bands (ev):

   -23.5555 -23.5418 -23.4856 -23.4245 -23.3901 -23.3216 -23.2794 -23.2753
   -23.1671 -23.1154 -10.6761  -6.8452  -3.6486  -3.4854  -0.5710   0.2130
     1.4015   2.3716

          k = 0.1250 0.3608 0.0000 ( 20112 PWs)   bands (ev):

   -23.5589 -23.5406 -23.4921 -23.4195 -23.3857 -23.3145 -23.2857 -23.2784
   -23.1715 -23.1081 -10.4865  -7.2142  -3.8160  -3.3734  -0.7960   0.2167
     1.7480   2.4380

          k = 0.1250 0.4090 0.0000 ( 20146 PWs)   bands (ev):

   -23.5617 -23.5386 -23.4985 -23.4143 -23.3838 -23.3098 -23.2910 -23.2773
   -23.1768 -23.1019 -10.2798  -7.5760  -3.9600  -3.2264  -1.0330   0.1930
     2.0387   2.4624

          k = 0.1250 0.4571 0.0000 ( 20145 PWs)   bands (ev):

   -23.5638 -23.5359 -23.5045 -23.4094 -23.3841 -23.3074 -23.2955 -23.2726
   -23.1825 -23.0971 -10.0666  -7.9118  -4.0704  -3.0671  -1.2627   0.1617
     2.2163   2.5231

          k = 0.1250 0.5052 0.0000 ( 20141 PWs)   bands (ev):

   -23.5651 -23.5331 -23.5096 -23.4048 -23.3861 -23.3060 -23.2990 -23.2670
   -23.1875 -23.0938  -9.8699  -8.1930  -4.1446  -2.9200  -1.4586   0.1348
     2.2530   2.7117

          k = 0.1250 0.5533 0.0000 ( 20145 PWs)   bands (ev):

   -23.5658 -23.5309 -23.5129 -23.4015 -23.3883 -23.3045 -23.3017 -23.2633
   -23.1906 -23.0921  -9.7388  -8.3672  -4.1819  -2.8244  -1.5791   0.1196
     2.2483   2.9289

          k = 0.1667 0.2887 0.0000 ( 20113 PWs)   bands (ev):

   -23.5560 -23.5415 -23.4851 -23.4256 -23.3877 -23.3238 -23.2789 -23.2748
   -23.1684 -23.1147 -10.6893  -6.8098  -3.6602  -3.5134  -0.5238   0.4303
     1.1592   2.3760

          k = 0.1667 0.3368 0.0000 ( 20110 PWs)   bands (ev):

   -23.5602 -23.5401 -23.4912 -23.4209 -23.3802 -23.3192 -23.2848 -23.2780
   -23.1742 -23.1063 -10.5112  -7.1512  -3.8834  -3.3909  -0.7216   0.5881
     1.4136   2.4413

          k = 0.1667 0.3849 0.0000 ( 20115 PWs)   bands (ev):

   -23.5638 -23.5380 -23.4974 -23.4157 -23.3750 -23.3163 -23.2901 -23.2775
   -23.1810 -23.0989 -10.3126  -7.4964  -4.0733  -3.2395  -0.9475   0.6290
     1.7883   2.3675

          k = 0.1667 0.4330 0.0000 ( 20139 PWs)   bands (ev):

   -23.5668 -23.5354 -23.5032 -23.4103 -23.3729 -23.3145 -23.2949 -23.2737
   -23.1883 -23.0928 -10.1000  -7.8308  -4.2236  -3.0703  -1.1826   0.6285
     2.1567   2.2574

          k = 0.1667 0.4811 0.0000 ( 20145 PWs)   bands (ev):

   -23.5690 -23.5325 -23.5085 -23.4051 -23.3736 -23.3125 -23.2991 -23.2681
   -23.1954 -23.0883  -9.8879  -8.1340  -4.3319  -2.8992  -1.4048   0.6173
     2.1476   2.5031

          k = 0.1667 0.5292 0.0000 ( 20147 PWs)   bands (ev):

   -23.5703 -23.5298 -23.5126 -23.4007 -23.3758 -23.3098 -23.3029 -23.2631
   -23.2009 -23.0855  -9.7095  -8.3686  -4.3971  -2.7570  -1.5794   0.6072
     2.0860   2.7964

          k = 0.1667 0.5774 0.0000 ( 20135 PWs)   bands (ev):

   -23.5708 -23.5286 -23.5144 -23.3989 -23.3770 -23.3072 -23.3058 -23.2610
   -23.2031 -23.0846  -9.6331  -8.4641  -4.4189  -2.6973  -1.6501   0.6033
     2.0649   2.9627

          k = 0.2083 0.3608 0.0000 ( 20119 PWs)   bands (ev):

   -23.5646 -23.5379 -23.4970 -23.4162 -23.3712 -23.3194 -23.2898 -23.2776
   -23.1825 -23.0978 -10.3236  -7.4680  -4.1141  -3.2451  -0.9175   0.9210
     1.5348   2.4103

          k = 0.2083 0.4090 0.0000 ( 20133 PWs)   bands (ev):

   -23.5685 -23.5352 -23.5026 -23.4109 -23.3644 -23.3207 -23.2946 -23.2741
   -23.1915 -23.0905 -10.1173  -7.7853  -4.3079  -3.0750  -1.1371   1.0779
     1.8518   2.2385

          k = 0.2083 0.4571 0.0000 ( 20137 PWs)   bands (ev):

   -23.5715 -23.5323 -23.5078 -23.4053 -23.3614 -23.3204 -23.2991 -23.2689
   -23.2006 -23.0848  -9.9005  -8.0900  -4.4566  -2.8925  -1.3624   1.1239
     2.0643   2.2774

          k = 0.2083 0.5052 0.0000 ( 20163 PWs)   bands (ev):

   -23.5737 -23.5294 -23.5122 -23.4002 -23.3620 -23.3176 -23.3036 -23.2632
   -23.2087 -23.0808  -9.6927  -8.3587  -4.5569  -2.7175  -1.5687   1.1393
     1.9573   2.6485

          k = 0.2083 0.5533 0.0000 ( 20157 PWs)   bands (ev):

   -23.5748 -23.5271 -23.5152 -23.3969 -23.3637 -23.3132 -23.3083 -23.2591
   -23.2140 -23.0788  -9.5443  -8.5381  -4.6073  -2.5943  -1.7082   1.1451
     1.8981   2.9374

          k = 0.2500 0.4330 0.0000 ( 20149 PWs)   bands (ev):

   -23.5724 -23.5322 -23.5075 -23.4054 -23.3552 -23.3251 -23.2991 -23.2691
   -23.2024 -23.0836  -9.9051  -8.0737  -4.5004  -2.8913  -1.3463   1.4433
     2.0198   2.0822

          k = 0.2500 0.4811 0.0000 ( 20153 PWs)   bands (ev):

   -23.5755 -23.5292 -23.5119 -23.4000 -23.3500 -23.3263 -23.3040 -23.2633
   -23.2129 -23.0783  -9.6853  -8.3497  -4.6419  -2.6998  -1.5589   1.6035
     1.9360   2.3892

          k = 0.2500 0.5292 0.0000 ( 20133 PWs)   bands (ev):

   -23.5774 -23.5264 -23.5155 -23.3958 -23.3499 -23.3221 -23.3095 -23.2577
   -23.2216 -23.0751  -9.4841  -8.5854  -4.7281  -2.5258  -1.7467   1.6699
     1.8224   2.7932

          k = 0.2500 0.5774 0.0000 ( 20123 PWs)   bands (ev):

   -23.5780 -23.5250 -23.5171 -23.3941 -23.3506 -23.3159 -23.3155 -23.2549
   -23.2255 -23.0740  -9.3857  -8.6955  -4.7571  -2.4419  -1.8353   1.7152
     1.7554   3.0077

          k = 0.2917 0.5052 0.0000 ( 20137 PWs)   bands (ev):

   -23.5783 -23.5263 -23.5155 -23.3954 -23.3404 -23.3298 -23.3099 -23.2571
   -23.2244 -23.0738  -9.4626  -8.6019  -4.7698  -2.5015  -1.7603   1.7227
     2.1192   2.5544

          k = 0.2917 0.5533 0.0000 ( 20132 PWs)   bands (ev):

   -23.5797 -23.5237 -23.5184 -23.3926 -23.3378 -23.3252 -23.3171 -23.2512
   -23.2333 -23.0715  -9.2657  -8.8134  -4.8349  -2.3285  -1.9350   1.6796
     2.2553   2.8500

          k = 0.3333 0.5774 0.0000 ( 20133 PWs)   bands (ev):

   -23.5805 -23.5211 -23.5211 -23.3914 -23.3277 -23.3262 -23.3258 -23.2432
   -23.2431 -23.0703  -9.0411  -9.0410  -4.8711  -2.1302  -2.1301   1.6465
     2.6848   2.6849

     the Fermi energy is    -2.1263 ev

!    total energy              =    -326.41889897 Ry
     estimated scf accuracy    <       0.00000068 Ry
     smearing contrib. (-TS)   =      -0.00069766 Ry
     internal energy E=F+TS    =    -326.41820131 Ry

     The total energy is F=E-TS. E is the sum of the following terms:
     one-electron contribution =    -856.45464800 Ry
     hartree contribution      =     435.92301587 Ry
     xc contribution           =     -95.00803451 Ry
     ewald contribution        =     189.12146532 Ry

     convergence has been achieved in   7 iterations

     Writing output data file ../tmp/stanene.save/

     init_run     :      5.86s CPU      6.15s WALL (       1 calls)
     electrons    :    117.99s CPU    122.11s WALL (       1 calls)

     Called by init_run:
     wfcinit      :      4.64s CPU      4.76s WALL (       1 calls)
     potinit      :      0.38s CPU      0.42s WALL (       1 calls)
     hinit0       :      0.40s CPU      0.40s WALL (       1 calls)

     Called by electrons:
     c_bands      :    100.13s CPU    102.75s WALL (       7 calls)
     sum_band     :     14.22s CPU     15.29s WALL (       7 calls)
     v_of_rho     :      1.37s CPU      1.47s WALL (       8 calls)
     newd         :      2.37s CPU      2.85s WALL (       8 calls)
     mix_rho      :      0.18s CPU      0.18s WALL (       7 calls)

     Called by c_bands:
     init_us_2    :      0.84s CPU      0.85s WALL (     915 calls)
     cegterg      :     96.84s CPU     99.44s WALL (     427 calls)

     Called by *egterg:
     cdiaghg      :      1.52s CPU      1.54s WALL (    2335 calls)
     h_psi        :     61.49s CPU     64.06s WALL (    2396 calls)
     s_psi        :      4.51s CPU      4.55s WALL (    2396 calls)
     g_psi        :      0.40s CPU      0.40s WALL (    1908 calls)

     Called by h_psi:
     h_psi:calbec :      7.61s CPU      7.84s WALL (    2396 calls)
     vloc_psi     :     49.01s CPU     51.28s WALL (    2396 calls)
     add_vuspsi   :      4.63s CPU      4.70s WALL (    2396 calls)

     General routines
     calbec       :     10.00s CPU     10.28s WALL (    2823 calls)
     fft          :      1.47s CPU      1.55s WALL (     102 calls)
     ffts         :      0.03s CPU      0.03s WALL (      15 calls)
     fftw         :     52.29s CPU     54.52s WALL (   53872 calls)
     interpolate  :      0.12s CPU      0.14s WALL (       8 calls)

     Parallel routines
     fft_scatt_xy :      4.75s CPU      5.02s WALL (   53989 calls)
     fft_scatt_yz :     28.42s CPU     29.46s WALL (   53989 calls)

     PWSCF        :   2m 4.13s CPU   2m 8.84s WALL


   This run was terminated on:  22:53:21  23Jan2024            

=------------------------------------------------------------------------------=
   JOB DONE.
=------------------------------------------------------------------------------=
