
     Program PWSCF v.6.7MaX starts on 23Jan2024 at 22:49: 4 

     This program is part of the open-source Quantum ESPRESSO suite
     for quantum simulation of materials; please cite
         "P. Giannozzi et al., J. Phys.:Condens. Matter 21 395502 (2009);
         "P. Giannozzi et al., J. Phys.:Condens. Matter 29 465901 (2017);
          URL http://www.quantum-espresso.org", 
     in publications or presentations arising from this work. More details at
     http://www.quantum-espresso.org/quote

     Parallel version (MPI), running on     6 processors

     MPI processes distributed on     1 nodes
     R & G space division:  proc/nbgrp/npool/nimage =       6
     Waiting for input...
     Reading input from standard input

     Current dimensions of program PWSCF are:
     Max number of different atomic species (ntypx) = 10
     Max number of k-points (npk) =  40000
     Max angular momentum in pseudopotentials (lmaxx) =  3

     Subspace diagonalization in iterative solution of the eigenvalue problem:
     one sub-group per band group will be used
     scalapack distributed-memory algorithm (size of sub-group:  2*  2 procs)


     Parallelization info
     --------------------
     sticks:   dense  smooth     PW     G-vecs:    dense   smooth      PW
     Min         431     214     61                75909    26818    4015
     Max         432     215     62                75924    26841    4025
     Sum        2587    1285    367               455489   160939   24117



     bravais-lattice index     =            4
     lattice parameter (alat)  =       8.8506  a.u.
     unit-cell volume          =    2563.9136 (a.u.)^3
     number of atoms/cell      =            2
     number of atomic types    =            1
     number of electrons       =        28.00
     number of Kohn-Sham states=           18
     kinetic-energy cutoff     =      60.0000  Ry
     charge density cutoff     =     480.0000  Ry
     scf convergence threshold =      1.0E-06
     mixing beta               =       0.7000
     number of iterations used =            8  plain     mixing
     Exchange-correlation= SLA  PW   PBE  PBE
                           (   1   4   3   4   0   0   0)

     celldm(1)=   8.850584  celldm(2)=   0.000000  celldm(3)=   4.270286
     celldm(4)=   0.000000  celldm(5)=   0.000000  celldm(6)=   0.000000

     crystal axes: (cart. coord. in units of alat)
               a(1) = (   1.000000   0.000000   0.000000 )  
               a(2) = (  -0.500000   0.866025   0.000000 )  
               a(3) = (   0.000000   0.000000   4.270286 )  

     reciprocal axes: (cart. coord. in units 2 pi/alat)
               b(1) = (  1.000000  0.577350 -0.000000 )  
               b(2) = (  0.000000  1.154701  0.000000 )  
               b(3) = (  0.000000 -0.000000  0.234176 )  


     PseudoPot. # 1 for Sn read from file:
     ../pseudo/Sn_pbe_v1.uspp.F.UPF
     MD5 check sum: 4cf58ce39ec5d5d420df3dd08604eb00
     Pseudo is Ultrasoft + core correction, Zval = 14.0
     Generated by new atomic code, or converted to UPF format
     Using radial grid of  891 points,  6 beta functions with: 
                l(1) =   0
                l(2) =   0
                l(3) =   1
                l(4) =   1
                l(5) =   2
                l(6) =   2
     Q(r) pseudized with  6 coefficients,  rinner =    1.200   1.200   1.200
                                                       1.200   1.200

     atomic species   valence    mass     pseudopotential
        Sn            14.00   118.71000     Sn( 1.00)

      6 Sym. Ops. (no inversion) found



   Cartesian axes

     site n.     atom                  positions (alat units)
         1           Sn  tau(   1) = (   0.0000000   0.5773503   2.1351428  )
         2           Sn  tau(   2) = (   0.5000000   0.2886751   1.9552503  )

     number of k points=    61  Gaussian smearing, width (Ry)=  0.0150
                       cart. coord. in units 2pi/alat
        k(    1) = (   0.0000000   0.0000000   0.0000000), wk =   0.0034722
        k(    2) = (   0.0000000   0.0481125   0.0000000), wk =   0.0208333
        k(    3) = (   0.0000000   0.0962250   0.0000000), wk =   0.0208333
        k(    4) = (   0.0000000   0.1443376   0.0000000), wk =   0.0208333
        k(    5) = (   0.0000000   0.1924501   0.0000000), wk =   0.0208333
        k(    6) = (   0.0000000   0.2405626   0.0000000), wk =   0.0208333
        k(    7) = (   0.0000000   0.2886751   0.0000000), wk =   0.0208333
        k(    8) = (   0.0000000   0.3367877   0.0000000), wk =   0.0208333
        k(    9) = (   0.0000000   0.3849002   0.0000000), wk =   0.0208333
        k(   10) = (   0.0000000   0.4330127   0.0000000), wk =   0.0208333
        k(   11) = (   0.0000000   0.4811252   0.0000000), wk =   0.0208333
        k(   12) = (   0.0000000   0.5292377   0.0000000), wk =   0.0208333
        k(   13) = (   0.0000000  -0.5773503   0.0000000), wk =   0.0104167
        k(   14) = (   0.0416667   0.0721688   0.0000000), wk =   0.0208333
        k(   15) = (   0.0416667   0.1202813   0.0000000), wk =   0.0416667
        k(   16) = (   0.0416667   0.1683938   0.0000000), wk =   0.0416667
        k(   17) = (   0.0416667   0.2165064   0.0000000), wk =   0.0416667
        k(   18) = (   0.0416667   0.2646189   0.0000000), wk =   0.0416667
        k(   19) = (   0.0416667   0.3127314   0.0000000), wk =   0.0416667
        k(   20) = (   0.0416667   0.3608439   0.0000000), wk =   0.0416667
        k(   21) = (   0.0416667   0.4089564   0.0000000), wk =   0.0416667
        k(   22) = (   0.0416667   0.4570690   0.0000000), wk =   0.0416667
        k(   23) = (   0.0416667   0.5051815   0.0000000), wk =   0.0416667
        k(   24) = (   0.0416667   0.5532940   0.0000000), wk =   0.0416667
        k(   25) = (   0.0833333   0.1443376   0.0000000), wk =   0.0208333
        k(   26) = (   0.0833333   0.1924501   0.0000000), wk =   0.0416667
        k(   27) = (   0.0833333   0.2405626   0.0000000), wk =   0.0416667
        k(   28) = (   0.0833333   0.2886751   0.0000000), wk =   0.0416667
        k(   29) = (   0.0833333   0.3367877   0.0000000), wk =   0.0416667
        k(   30) = (   0.0833333   0.3849002   0.0000000), wk =   0.0416667
        k(   31) = (   0.0833333   0.4330127   0.0000000), wk =   0.0416667
        k(   32) = (   0.0833333   0.4811252   0.0000000), wk =   0.0416667
        k(   33) = (   0.0833333   0.5292377   0.0000000), wk =   0.0416667
        k(   34) = (   0.0833333   0.5773503   0.0000000), wk =   0.0208333
        k(   35) = (   0.1250000   0.2165064   0.0000000), wk =   0.0208333
        k(   36) = (   0.1250000   0.2646189   0.0000000), wk =   0.0416667
        k(   37) = (   0.1250000   0.3127314   0.0000000), wk =   0.0416667
        k(   38) = (   0.1250000   0.3608439   0.0000000), wk =   0.0416667
        k(   39) = (   0.1250000   0.4089564   0.0000000), wk =   0.0416667
        k(   40) = (   0.1250000   0.4570690   0.0000000), wk =   0.0416667
        k(   41) = (   0.1250000   0.5051815   0.0000000), wk =   0.0416667
        k(   42) = (   0.1250000   0.5532940   0.0000000), wk =   0.0416667
        k(   43) = (   0.1666667   0.2886751   0.0000000), wk =   0.0208333
        k(   44) = (   0.1666667   0.3367877   0.0000000), wk =   0.0416667
        k(   45) = (   0.1666667   0.3849002   0.0000000), wk =   0.0416667
        k(   46) = (   0.1666667   0.4330127   0.0000000), wk =   0.0416667
        k(   47) = (   0.1666667   0.4811252   0.0000000), wk =   0.0416667
        k(   48) = (   0.1666667   0.5292377   0.0000000), wk =   0.0416667
        k(   49) = (   0.1666667   0.5773503   0.0000000), wk =   0.0208333
        k(   50) = (   0.2083333   0.3608439   0.0000000), wk =   0.0208333
        k(   51) = (   0.2083333   0.4089564   0.0000000), wk =   0.0416667
        k(   52) = (   0.2083333   0.4570690   0.0000000), wk =   0.0416667
        k(   53) = (   0.2083333   0.5051815   0.0000000), wk =   0.0416667
        k(   54) = (   0.2083333   0.5532940   0.0000000), wk =   0.0416667
        k(   55) = (   0.2500000   0.4330127   0.0000000), wk =   0.0208333
        k(   56) = (   0.2500000   0.4811252   0.0000000), wk =   0.0416667
        k(   57) = (   0.2500000   0.5292377   0.0000000), wk =   0.0416667
        k(   58) = (   0.2500000   0.5773503   0.0000000), wk =   0.0208333
        k(   59) = (   0.2916667   0.5051815   0.0000000), wk =   0.0208333
        k(   60) = (   0.2916667   0.5532940   0.0000000), wk =   0.0416667
        k(   61) = (   0.3333333   0.5773503   0.0000000), wk =   0.0069444

     Dense  grid:   455489 G-vectors     FFT dimensions: (  64,  64, 270)

     Smooth grid:   160939 G-vectors     FFT dimensions: (  45,  45, 192)

     Estimated max dynamical RAM per process >     322.30 MB

     Estimated total dynamical RAM >       1.89 GB

     Initial potential from superposition of free atoms

     starting charge   25.99991, renormalised to   28.00000

     negative rho (up, down):  5.949E-04 0.000E+00
     Starting wfcs are   18 randomized atomic wfcs

     total cpu time spent up to now is        6.5 secs

     Self-consistent Calculation

     iteration #  1     ecut=    60.00 Ry     beta= 0.70
     Davidson diagonalization with overlap
     ethr =  1.00E-02,  avg # of iterations =  8.8

     negative rho (up, down):  2.234E-05 0.000E+00

     total cpu time spent up to now is       27.8 secs

     total energy              =    -325.45640168 Ry
     estimated scf accuracy    <       2.47093586 Ry

     iteration #  2     ecut=    60.00 Ry     beta= 0.70
     Davidson diagonalization with overlap
     ethr =  8.82E-03,  avg # of iterations =  2.1

     negative rho (up, down):  3.708E-05 0.000E+00

     total cpu time spent up to now is       44.0 secs

     total energy              =    -326.35820998 Ry
     estimated scf accuracy    <       0.38476163 Ry

     iteration #  3     ecut=    60.00 Ry     beta= 0.70
     Davidson diagonalization with overlap
     ethr =  1.37E-03,  avg # of iterations =  2.1

     negative rho (up, down):  6.058E-05 0.000E+00

     total cpu time spent up to now is       61.1 secs

     total energy              =    -326.41669243 Ry
     estimated scf accuracy    <       0.00631391 Ry

     iteration #  4     ecut=    60.00 Ry     beta= 0.70
     Davidson diagonalization with overlap
     c_bands:  1 eigenvalues not converged
     ethr =  2.25E-05,  avg # of iterations =  8.4

     negative rho (up, down):  8.126E-05 0.000E+00

     total cpu time spent up to now is       82.4 secs

     total energy              =    -326.41872933 Ry
     estimated scf accuracy    <       0.00032905 Ry

     iteration #  5     ecut=    60.00 Ry     beta= 0.70
     Davidson diagonalization with overlap
     c_bands:  1 eigenvalues not converged
     c_bands:  1 eigenvalues not converged
     ethr =  1.18E-06,  avg # of iterations =  5.4

     negative rho (up, down):  8.297E-05 0.000E+00

     total cpu time spent up to now is       99.3 secs

     total energy              =    -326.41876085 Ry
     estimated scf accuracy    <       0.00003534 Ry

     iteration #  6     ecut=    60.00 Ry     beta= 0.70
     Davidson diagonalization with overlap
     c_bands:  1 eigenvalues not converged
     ethr =  1.26E-07,  avg # of iterations =  2.3

     negative rho (up, down):  8.491E-05 0.000E+00

     total cpu time spent up to now is      113.2 secs

     total energy              =    -326.41876851 Ry
     estimated scf accuracy    <       0.00001667 Ry

     iteration #  7     ecut=    60.00 Ry     beta= 0.70
     Davidson diagonalization with overlap
     ethr =  5.96E-08,  avg # of iterations =  2.1

     negative rho (up, down):  8.562E-05 0.000E+00

     total cpu time spent up to now is      127.0 secs

     End of self-consistent calculation

          k = 0.0000 0.0000 0.0000 ( 20025 PWs)   bands (ev):

   -23.5292 -23.5292 -23.4507 -23.4507 -23.4354 -23.3654 -23.2241 -23.2241
   -23.1684 -23.1684 -11.3750  -5.2753  -2.4056  -2.4056  -1.9454  -0.0653
     1.0898   1.0898

          k = 0.0000 0.0481 0.0000 ( 20035 PWs)   bands (ev):

   -23.5301 -23.5300 -23.4523 -23.4495 -23.4331 -23.3642 -23.2266 -23.2264
   -23.1670 -23.1661 -11.3603  -5.2984  -2.6946  -2.4381  -1.6381  -0.0642
     1.0599   1.1456

          k = 0.0000 0.0962 0.0000 ( 20005 PWs)   bands (ev):

   -23.5325 -23.5321 -23.4559 -23.4461 -23.4279 -23.3605 -23.2330 -23.2325
   -23.1638 -23.1602 -11.3162  -5.3762  -3.0811  -2.5286  -1.2023  -0.0642
     1.0047   1.3050

          k = 0.0000 0.1443 0.0000 ( 20065 PWs)   bands (ev):

   -23.5358 -23.5351 -23.4605 -23.4411 -23.4215 -23.3544 -23.2416 -23.2409
   -23.1600 -23.1527 -11.2431  -5.5292  -3.3908  -2.6603  -0.8385  -0.0742
     1.0090   1.5479

          k = 0.0000 0.1925 0.0000 ( 20113 PWs)   bands (ev):

   -23.5390 -23.5384 -23.4659 -23.4351 -23.4153 -23.3461 -23.2510 -23.2502
   -23.1568 -23.1446 -11.1414  -5.7734  -3.5857  -2.8144  -0.6377  -0.0973
     1.1540   2.1786

          k = 0.0000 0.2406 0.0000 ( 20071 PWs)   bands (ev):

   -23.5418 -23.5416 -23.4717 -23.4288 -23.4101 -23.3359 -23.2605 -23.2593
   -23.1546 -23.1366 -11.0120  -6.0997  -3.6660  -2.9749  -0.6248  -0.1267
     1.4135   2.2893

          k = 0.0000 0.2887 0.0000 ( 20087 PWs)   bands (ev):

   -23.5448 -23.5433 -23.4779 -23.4225 -23.4063 -23.3245 -23.2695 -23.2676
   -23.1538 -23.1292 -10.8564  -6.4784  -3.6563  -3.1298  -0.7297  -0.1752
     1.6506   2.4645

          k = 0.0000 0.3368 0.0000 ( 20109 PWs)   bands (ev):

   -23.5474 -23.5437 -23.4844 -23.4167 -23.4040 -23.3128 -23.2776 -23.2740
   -23.1544 -23.1226 -10.6769  -6.8785  -3.5851  -3.2709  -0.8832  -0.2561
     1.8052   2.6672

          k = 0.0000 0.3849 0.0000 ( 20145 PWs)   bands (ev):

   -23.5495 -23.5429 -23.4911 -23.4116 -23.4031 -23.3026 -23.2847 -23.2776
   -23.1563 -23.1170 -10.4779  -7.2755  -3.4751  -3.3924  -1.0531  -0.3609
     1.9369   2.8824

          k = 0.0000 0.4330 0.0000 ( 20161 PWs)   bands (ev):

   -23.5511 -23.5409 -23.4977 -23.4076 -23.4031 -23.2969 -23.2903 -23.2760
   -23.1590 -23.1125 -10.2674  -7.6489  -3.4903  -3.3463  -1.2236  -0.4688
     2.0853   3.1009

          k = 0.0000 0.4811 0.0000 ( 20157 PWs)   bands (ev):

   -23.5522 -23.5381 -23.5038 -23.4046 -23.4035 -23.2959 -23.2945 -23.2704
   -23.1620 -23.1092 -10.0622  -7.9746  -3.5619  -3.2200  -1.3785  -0.5591
     2.2501   3.2801

          k = 0.0000 0.5292 0.0000 ( 20142 PWs)   bands (ev):

   -23.5528 -23.5353 -23.5086 -23.4040 -23.4028 -23.2970 -23.2963 -23.2652
   -23.1644 -23.1072  -9.8969  -8.2137  -3.6055  -3.1234  -1.4925  -0.6177
     2.4001   3.3370

          k = 0.0000-0.5774 0.0000 ( 20152 PWs)   bands (ev):

   -23.5530 -23.5340 -23.5106 -23.4041 -23.4022 -23.2978 -23.2965 -23.2632
   -23.1653 -23.1065  -9.8294  -8.3060  -3.6201  -3.0863  -1.5356  -0.6378
     2.4674   3.3869

          k = 0.0417 0.0722 0.0000 ( 20017 PWs)   bands (ev):

   -23.5317 -23.5315 -23.4547 -23.4473 -23.4294 -23.3617 -23.2311 -23.2305
   -23.1649 -23.1619 -11.3309  -5.3489  -2.9805  -2.5039  -1.3124  -0.0637
     1.0077   1.2619

          k = 0.0417 0.1203 0.0000 ( 20039 PWs)   bands (ev):

   -23.5344 -23.5341 -23.4586 -23.4435 -23.4235 -23.3569 -23.2387 -23.2375
   -23.1618 -23.1550 -11.2723  -5.4646  -3.2879  -2.6250  -0.9310  -0.0696
     0.9542   1.4836

          k = 0.0417 0.1684 0.0000 ( 20081 PWs)   bands (ev):

   -23.5379 -23.5370 -23.4634 -23.4384 -23.4169 -23.3498 -23.2476 -23.2461
   -23.1588 -23.1470 -11.1849  -5.6649  -3.5159  -2.7789  -0.6355  -0.0908
     0.9928   1.7784

          k = 0.0417 0.2165 0.0000 ( 20075 PWs)   bands (ev):

   -23.5415 -23.5397 -23.4690 -23.4325 -23.4107 -23.3408 -23.2569 -23.2552
   -23.1566 -23.1388 -11.0693  -5.9526  -3.6370  -2.9459  -0.5221  -0.1166
     1.1831   2.0941

          k = 0.0417 0.2646 0.0000 ( 20107 PWs)   bands (ev):

   -23.5449 -23.5416 -23.4750 -23.4265 -23.4056 -23.3302 -23.2658 -23.2640
   -23.1555 -23.1309 -10.9266  -6.3063  -3.6625  -3.1104  -0.5854  -0.1391
     1.4618   2.2909

          k = 0.0417 0.3127 0.0000 ( 20105 PWs)   bands (ev):

   -23.5478 -23.5425 -23.4814 -23.4207 -23.4020 -23.3188 -23.2742 -23.2714
   -23.1559 -23.1237 -10.7587  -6.6953  -3.6204  -3.2594  -0.7347  -0.1860
     1.6996   2.4972

          k = 0.0417 0.3608 0.0000 ( 20127 PWs)   bands (ev):

   -23.5502 -23.5423 -23.4881 -23.4156 -23.3999 -23.3080 -23.2816 -23.2764
   -23.1576 -23.1174 -10.5688  -7.0929  -3.5510  -3.3689  -0.9152  -0.2629
     1.8655   2.7220

          k = 0.0417 0.4090 0.0000 ( 20135 PWs)   bands (ev):

   -23.5521 -23.5408 -23.4947 -23.4111 -23.3991 -23.3002 -23.2878 -23.2774
   -23.1603 -23.1121 -10.3626  -7.4778  -3.5634  -3.3446  -1.1046  -0.3542
     2.0150   2.9061

          k = 0.0417 0.4571 0.0000 ( 20146 PWs)   bands (ev):

   -23.5534 -23.5384 -23.5011 -23.4076 -23.3993 -23.2974 -23.2925 -23.2731
   -23.1636 -23.1081 -10.1515  -7.8291  -3.6337  -3.2270  -1.2866  -0.4399
     2.1742   3.0324

          k = 0.0417 0.5052 0.0000 ( 20148 PWs)   bands (ev):

   -23.5543 -23.5356 -23.5066 -23.4048 -23.4001 -23.2976 -23.2955 -23.2672
   -23.1667 -23.1054  -9.9598  -8.1170  -3.6886  -3.1113  -1.4388  -0.5044
     2.3298   3.1193

          k = 0.0417 0.5533 0.0000 ( 20150 PWs)   bands (ev):

   -23.5547 -23.5333 -23.5102 -23.4028 -23.4012 -23.2982 -23.2968 -23.2635
   -23.1686 -23.1040  -9.8348  -8.2908  -3.7171  -3.0387  -1.5293  -0.5385
     2.4356   3.2184

          k = 0.0833 0.1443 0.0000 ( 20061 PWs)   bands (ev):

   -23.5374 -23.5366 -23.4624 -23.4400 -23.4171 -23.3511 -23.2465 -23.2445
   -23.1599 -23.1475 -11.1994  -5.6288  -3.4806  -2.7831  -0.6078  -0.0913
     0.8964   1.7804

          k = 0.0833 0.1925 0.0000 ( 20087 PWs)   bands (ev):

   -23.5413 -23.5388 -23.4672 -23.4355 -23.4100 -23.3436 -23.2551 -23.2527
   -23.1587 -23.1391 -11.0980  -5.8759  -3.6025  -2.9701  -0.3522  -0.1329
     0.9323   2.1233

          k = 0.0833 0.2406 0.0000 ( 20121 PWs)   bands (ev):

   -23.5452 -23.5403 -23.4729 -23.4304 -23.4032 -23.3345 -23.2637 -23.2612
   -23.1584 -23.1306 -10.9689  -6.1942  -3.6436  -3.1596  -0.3494  -0.0987
     1.1284   2.2433

          k = 0.0833 0.2887 0.0000 ( 20106 PWs)   bands (ev):

   -23.5489 -23.5411 -23.4791 -23.4251 -23.3977 -23.3245 -23.2718 -23.2689
   -23.1593 -23.1226 -10.8136  -6.5586  -3.6237  -3.3290  -0.5116  -0.0613
     1.4307   2.3289

          k = 0.0833 0.3368 0.0000 ( 20114 PWs)   bands (ev):

   -23.5521 -23.5409 -23.4856 -23.4198 -23.3938 -23.3144 -23.2791 -23.2748
   -23.1615 -23.1153 -10.6344  -6.9433  -3.6110  -3.4189  -0.7165  -0.0768
     1.7202   2.4790

          k = 0.0833 0.3849 0.0000 ( 20126 PWs)   bands (ev):

   -23.5546 -23.5397 -23.4923 -23.4149 -23.3918 -23.3060 -23.2855 -23.2773
   -23.1649 -23.1091 -10.4353  -7.3272  -3.6979  -3.3483  -0.9372  -0.1229
     1.9399   2.6378

          k = 0.0833 0.4330 0.0000 ( 20149 PWs)   bands (ev):

   -23.5565 -23.5376 -23.4987 -23.4104 -23.3915 -23.3016 -23.2906 -23.2749
   -23.1690 -23.1041 -10.2242  -7.6909  -3.7979  -3.2163  -1.1572  -0.1793
     2.1163   2.7370

          k = 0.0833 0.4811 0.0000 ( 20151 PWs)   bands (ev):

   -23.5578 -23.5349 -23.5046 -23.4063 -23.3926 -23.3004 -23.2945 -23.2693
   -23.1731 -23.1004 -10.0173  -8.0111  -3.8749  -3.0771  -1.3563  -0.2302
     2.2628   2.8234

          k = 0.0833 0.5292 0.0000 ( 20157 PWs)   bands (ev):

   -23.5586 -23.5322 -23.5092 -23.4028 -23.3945 -23.3001 -23.2972 -23.2643
   -23.1764 -23.0981  -9.8491  -8.2489  -3.9223  -2.9654  -1.5038  -0.2646
     2.3561   2.9567

          k = 0.0833 0.5774 0.0000 ( 20154 PWs)   bands (ev):

   -23.5588 -23.5309 -23.5111 -23.4009 -23.3960 -23.2998 -23.2983 -23.2623
   -23.1776 -23.0974  -9.7798  -8.3416  -3.9383  -2.9210  -1.5602  -0.2767
     2.3853   3.0781

          k = 0.1250 0.2165 0.0000 ( 20099 PWs)   bands (ev):

   -23.5453 -23.5399 -23.4720 -23.4320 -23.4021 -23.3362 -23.2630 -23.2602
   -23.1596 -23.1303 -10.9831  -6.1551  -3.6289  -3.1922  -0.2315  -0.0520
     0.9340   2.2527

          k = 0.1250 0.2646 0.0000 ( 20119 PWs)   bands (ev):

   -23.5495 -23.5403 -23.4778 -23.4276 -23.3945 -23.3281 -23.2706 -23.2675
   -23.1617 -23.1216 -10.8412  -6.4846  -3.6015  -3.4082  -0.3754   0.1428
     1.0931   2.3043

          k = 0.1250 0.3127 0.0000 ( 20122 PWs)   bands (ev):

   -23.5534 -23.5400 -23.4840 -23.4228 -23.3882 -23.3198 -23.2776 -23.2735
   -23.1650 -23.1133 -10.6740  -6.8433  -3.6466  -3.4839  -0.5698   0.2149
     1.4028   2.3725

          k = 0.1250 0.3608 0.0000 ( 20112 PWs)   bands (ev):

   -23.5568 -23.5387 -23.4905 -23.4177 -23.3839 -23.3127 -23.2839 -23.2767
   -23.1695 -23.1060 -10.4844  -7.2123  -3.8138  -3.3721  -0.7948   0.2186
     1.7490   2.4391

          k = 0.1250 0.4090 0.0000 ( 20146 PWs)   bands (ev):

   -23.5596 -23.5367 -23.4969 -23.4126 -23.3819 -23.3079 -23.2892 -23.2757
   -23.1748 -23.0998 -10.2778  -7.5741  -3.9579  -3.2251  -1.0319   0.1949
     2.0394   2.4636

          k = 0.1250 0.4571 0.0000 ( 20145 PWs)   bands (ev):

   -23.5617 -23.5341 -23.5029 -23.4076 -23.3822 -23.3056 -23.2937 -23.2710
   -23.1804 -23.0949 -10.0646  -7.9098  -4.0682  -3.0659  -1.2616   0.1637
     2.2169   2.5241

          k = 0.1250 0.5052 0.0000 ( 20141 PWs)   bands (ev):

   -23.5630 -23.5313 -23.5080 -23.4030 -23.3841 -23.3042 -23.2973 -23.2654
   -23.1855 -23.0916  -9.8679  -8.1910  -4.1425  -2.9188  -1.4575   0.1368
     2.2538   2.7124

          k = 0.1250 0.5533 0.0000 ( 20145 PWs)   bands (ev):

   -23.5637 -23.5291 -23.5113 -23.3997 -23.3863 -23.3027 -23.3000 -23.2617
   -23.1886 -23.0899  -9.7368  -8.3652  -4.1798  -2.8232  -1.5780   0.1216
     2.2492   2.9295

          k = 0.1667 0.2887 0.0000 ( 20113 PWs)   bands (ev):

   -23.5539 -23.5396 -23.4835 -23.4238 -23.3859 -23.3221 -23.2771 -23.2730
   -23.1664 -23.1126 -10.6872  -6.8079  -3.6580  -3.5121  -0.5227   0.4323
     1.1606   2.3767

          k = 0.1667 0.3368 0.0000 ( 20110 PWs)   bands (ev):

   -23.5581 -23.5382 -23.4896 -23.4191 -23.3784 -23.3173 -23.2830 -23.2763
   -23.1722 -23.1041 -10.5092  -7.1492  -3.8813  -3.3896  -0.7205   0.5900
     1.4150   2.4422

          k = 0.1667 0.3849 0.0000 ( 20115 PWs)   bands (ev):

   -23.5617 -23.5362 -23.4957 -23.4140 -23.3732 -23.3144 -23.2884 -23.2759
   -23.1790 -23.0967 -10.3105  -7.4945  -4.0711  -3.2382  -0.9464   0.6309
     1.7895   2.3686

          k = 0.1667 0.4330 0.0000 ( 20139 PWs)   bands (ev):

   -23.5647 -23.5336 -23.5016 -23.4086 -23.3710 -23.3126 -23.2931 -23.2721
   -23.1863 -23.0907 -10.0980  -7.8288  -4.2214  -3.0690  -1.1815   0.6304
     2.1575   2.2585

          k = 0.1667 0.4811 0.0000 ( 20145 PWs)   bands (ev):

   -23.5669 -23.5307 -23.5069 -23.4033 -23.3716 -23.3106 -23.2973 -23.2665
   -23.1934 -23.0861  -9.8858  -8.1320  -4.3297  -2.8980  -1.4037   0.6193
     2.1485   2.5038

          k = 0.1667 0.5292 0.0000 ( 20147 PWs)   bands (ev):

   -23.5682 -23.5281 -23.5110 -23.3990 -23.3738 -23.3079 -23.3011 -23.2615
   -23.1989 -23.0834  -9.7075  -8.3666  -4.3950  -2.7558  -1.5782   0.6092
     2.0870   2.7970

          k = 0.1667 0.5774 0.0000 ( 20135 PWs)   bands (ev):

   -23.5686 -23.5268 -23.5127 -23.3971 -23.3750 -23.3054 -23.3040 -23.2594
   -23.2011 -23.0824  -9.6310  -8.4620  -4.4167  -2.6961  -1.6490   0.6053
     2.0659   2.9633

          k = 0.2083 0.3608 0.0000 ( 20119 PWs)   bands (ev):

   -23.5625 -23.5360 -23.4953 -23.4144 -23.3694 -23.3174 -23.2881 -23.2759
   -23.1805 -23.0957 -10.3216  -7.4660  -4.1119  -3.2438  -0.9164   0.9230
     1.5361   2.4113

          k = 0.2083 0.4090 0.0000 ( 20133 PWs)   bands (ev):

   -23.5663 -23.5334 -23.5010 -23.4091 -23.3626 -23.3187 -23.2928 -23.2725
   -23.1895 -23.0884 -10.1153  -7.7834  -4.3057  -3.0738  -1.1360   1.0798
     1.8531   2.2395

          k = 0.2083 0.4571 0.0000 ( 20137 PWs)   bands (ev):

   -23.5694 -23.5305 -23.5061 -23.4035 -23.3595 -23.3185 -23.2973 -23.2672
   -23.1986 -23.0826  -9.8985  -8.0880  -4.4545  -2.8913  -1.3612   1.1259
     2.0654   2.2784

          k = 0.2083 0.5052 0.0000 ( 20163 PWs)   bands (ev):

   -23.5715 -23.5276 -23.5106 -23.3985 -23.3601 -23.3156 -23.3018 -23.2615
   -23.2068 -23.0786  -9.6906  -8.3567  -4.5547  -2.7163  -1.5675   1.1413
     1.9584   2.6492

          k = 0.2083 0.5533 0.0000 ( 20157 PWs)   bands (ev):

   -23.5726 -23.5254 -23.5135 -23.3952 -23.3617 -23.3113 -23.3065 -23.2575
   -23.2121 -23.0766  -9.5423  -8.5361  -4.6051  -2.5931  -1.7071   1.1471
     1.8991   2.9380

          k = 0.2500 0.4330 0.0000 ( 20149 PWs)   bands (ev):

   -23.5703 -23.5304 -23.5059 -23.4036 -23.3534 -23.3231 -23.2973 -23.2675
   -23.2004 -23.0814  -9.9030  -8.0717  -4.4982  -2.8901  -1.3452   1.4452
     2.0212   2.0833

          k = 0.2500 0.4811 0.0000 ( 20153 PWs)   bands (ev):

   -23.5733 -23.5275 -23.5103 -23.3982 -23.3481 -23.3242 -23.3022 -23.2617
   -23.2110 -23.0761  -9.6833  -8.3477  -4.6398  -2.6986  -1.5577   1.6053
     1.9372   2.3904

          k = 0.2500 0.5292 0.0000 ( 20133 PWs)   bands (ev):

   -23.5752 -23.5247 -23.5138 -23.3940 -23.3479 -23.3201 -23.3077 -23.2560
   -23.2198 -23.0729  -9.4821  -8.5834  -4.7260  -2.5246  -1.7456   1.6716
     1.8237   2.7943

          k = 0.2500 0.5774 0.0000 ( 20123 PWs)   bands (ev):

   -23.5759 -23.5233 -23.5155 -23.3924 -23.3486 -23.3140 -23.3137 -23.2533
   -23.2236 -23.0718  -9.3837  -8.6935  -4.7549  -2.4408  -1.8342   1.7172
     1.7564   3.0089

          k = 0.2917 0.5052 0.0000 ( 20137 PWs)   bands (ev):

   -23.5761 -23.5245 -23.5139 -23.3936 -23.3385 -23.3278 -23.3081 -23.2554
   -23.2225 -23.0716  -9.4606  -8.5998  -4.7676  -2.5003  -1.7592   1.7239
     2.1211   2.5558

          k = 0.2917 0.5533 0.0000 ( 20132 PWs)   bands (ev):

   -23.5776 -23.5220 -23.5167 -23.3909 -23.3359 -23.3233 -23.3152 -23.2495
   -23.2315 -23.0693  -9.2637  -8.8114  -4.8327  -2.3273  -1.9338   1.6807
     2.2572   2.8515

          k = 0.3333 0.5774 0.0000 ( 20133 PWs)   bands (ev):

   -23.5784 -23.5194 -23.5194 -23.3897 -23.3259 -23.3242 -23.3238 -23.2414
   -23.2414 -23.0681  -9.0391  -9.0390  -4.8689  -2.1290  -2.1289   1.6476
     2.6867   2.6867

     the Fermi energy is    -2.1291 ev

!    total energy              =    -326.41877085 Ry
     estimated scf accuracy    <       0.00000073 Ry
     smearing contrib. (-TS)   =      -0.00026372 Ry
     internal energy E=F+TS    =    -326.41850713 Ry

     The total energy is F=E-TS. E is the sum of the following terms:
     one-electron contribution =    -856.45923165 Ry
     hartree contribution      =     435.92746048 Ry
     xc contribution           =     -95.00820129 Ry
     ewald contribution        =     189.12146532 Ry

     convergence has been achieved in   7 iterations

     Writing output data file ../tmp/stanene.save/

     init_run     :      5.99s CPU      6.36s WALL (       1 calls)
     electrons    :    115.64s CPU    120.59s WALL (       1 calls)

     Called by init_run:
     wfcinit      :      4.70s CPU      4.94s WALL (       1 calls)
     potinit      :      0.41s CPU      0.46s WALL (       1 calls)
     hinit0       :      0.39s CPU      0.41s WALL (       1 calls)

     Called by electrons:
     c_bands      :     98.64s CPU    101.87s WALL (       7 calls)
     sum_band     :     12.95s CPU     14.06s WALL (       7 calls)
     v_of_rho     :      1.58s CPU      1.72s WALL (       8 calls)
     newd         :      2.53s CPU      3.08s WALL (       8 calls)
     mix_rho      :      0.22s CPU      0.23s WALL (       7 calls)

     Called by c_bands:
     init_us_2    :      0.83s CPU      0.84s WALL (     915 calls)
     cegterg      :     95.43s CPU     98.64s WALL (     427 calls)

     Called by *egterg:
     cdiaghg      :      1.57s CPU      1.59s WALL (    2335 calls)
     h_psi        :     60.33s CPU     63.57s WALL (    2396 calls)
     s_psi        :      4.45s CPU      4.48s WALL (    2396 calls)
     g_psi        :      0.40s CPU      0.40s WALL (    1908 calls)

     Called by h_psi:
     h_psi:calbec :      7.72s CPU      7.96s WALL (    2396 calls)
     vloc_psi     :     47.78s CPU     50.70s WALL (    2396 calls)
     add_vuspsi   :      4.59s CPU      4.67s WALL (    2396 calls)

     General routines
     calbec       :      9.94s CPU     10.24s WALL (    2823 calls)
     fft          :      1.61s CPU      1.71s WALL (     102 calls)
     ffts         :      0.06s CPU      0.07s WALL (      15 calls)
     fftw         :     50.06s CPU     52.82s WALL (   54104 calls)
     interpolate  :      0.15s CPU      0.18s WALL (       8 calls)

     Parallel routines
     fft_scatt_xy :      4.63s CPU      5.00s WALL (   54221 calls)
     fft_scatt_yz :     26.88s CPU     28.01s WALL (   54221 calls)

     PWSCF        :   2m 2.22s CPU   2m 7.99s WALL


   This run was terminated on:  22:51:12  23Jan2024            

=------------------------------------------------------------------------------=
   JOB DONE.
=------------------------------------------------------------------------------=
