
     Program PWSCF v.6.7MaX starts on 23Jan2024 at 22:44:45 

     This program is part of the open-source Quantum ESPRESSO suite
     for quantum simulation of materials; please cite
         "P. Giannozzi et al., J. Phys.:Condens. Matter 21 395502 (2009);
         "P. Giannozzi et al., J. Phys.:Condens. Matter 29 465901 (2017);
          URL http://www.quantum-espresso.org", 
     in publications or presentations arising from this work. More details at
     http://www.quantum-espresso.org/quote

     Parallel version (MPI), running on     6 processors

     MPI processes distributed on     1 nodes
     R & G space division:  proc/nbgrp/npool/nimage =       6
     Waiting for input...
     Reading input from standard input

     Current dimensions of program PWSCF are:
     Max number of different atomic species (ntypx) = 10
     Max number of k-points (npk) =  40000
     Max angular momentum in pseudopotentials (lmaxx) =  3

     Subspace diagonalization in iterative solution of the eigenvalue problem:
     one sub-group per band group will be used
     scalapack distributed-memory algorithm (size of sub-group:  2*  2 procs)


     Parallelization info
     --------------------
     sticks:   dense  smooth     PW     G-vecs:    dense   smooth      PW
     Min         431     214     61                75909    26818    4015
     Max         432     215     62                75924    26841    4025
     Sum        2587    1285    367               455489   160939   24117



     bravais-lattice index     =            4
     lattice parameter (alat)  =       8.8506  a.u.
     unit-cell volume          =    2563.9136 (a.u.)^3
     number of atoms/cell      =            2
     number of atomic types    =            1
     number of electrons       =        28.00
     number of Kohn-Sham states=           18
     kinetic-energy cutoff     =      60.0000  Ry
     charge density cutoff     =     480.0000  Ry
     scf convergence threshold =      1.0E-06
     mixing beta               =       0.7000
     number of iterations used =            8  plain     mixing
     Exchange-correlation= SLA  PW   PBE  PBE
                           (   1   4   3   4   0   0   0)

     celldm(1)=   8.850584  celldm(2)=   0.000000  celldm(3)=   4.270286
     celldm(4)=   0.000000  celldm(5)=   0.000000  celldm(6)=   0.000000

     crystal axes: (cart. coord. in units of alat)
               a(1) = (   1.000000   0.000000   0.000000 )  
               a(2) = (  -0.500000   0.866025   0.000000 )  
               a(3) = (   0.000000   0.000000   4.270286 )  

     reciprocal axes: (cart. coord. in units 2 pi/alat)
               b(1) = (  1.000000  0.577350 -0.000000 )  
               b(2) = (  0.000000  1.154701  0.000000 )  
               b(3) = (  0.000000 -0.000000  0.234176 )  


     PseudoPot. # 1 for Sn read from file:
     ../pseudo/Sn_pbe_v1.uspp.F.UPF
     MD5 check sum: 4cf58ce39ec5d5d420df3dd08604eb00
     Pseudo is Ultrasoft + core correction, Zval = 14.0
     Generated by new atomic code, or converted to UPF format
     Using radial grid of  891 points,  6 beta functions with: 
                l(1) =   0
                l(2) =   0
                l(3) =   1
                l(4) =   1
                l(5) =   2
                l(6) =   2
     Q(r) pseudized with  6 coefficients,  rinner =    1.200   1.200   1.200
                                                       1.200   1.200

     atomic species   valence    mass     pseudopotential
        Sn            14.00   118.71000     Sn( 1.00)

      6 Sym. Ops. (no inversion) found



   Cartesian axes

     site n.     atom                  positions (alat units)
         1           Sn  tau(   1) = (   0.0000000   0.5773503   2.1351428  )
         2           Sn  tau(   2) = (   0.5000000   0.2886751   1.9552503  )

     number of k points=    61  Gaussian smearing, width (Ry)=  0.0050
                       cart. coord. in units 2pi/alat
        k(    1) = (   0.0000000   0.0000000   0.0000000), wk =   0.0034722
        k(    2) = (   0.0000000   0.0481125   0.0000000), wk =   0.0208333
        k(    3) = (   0.0000000   0.0962250   0.0000000), wk =   0.0208333
        k(    4) = (   0.0000000   0.1443376   0.0000000), wk =   0.0208333
        k(    5) = (   0.0000000   0.1924501   0.0000000), wk =   0.0208333
        k(    6) = (   0.0000000   0.2405626   0.0000000), wk =   0.0208333
        k(    7) = (   0.0000000   0.2886751   0.0000000), wk =   0.0208333
        k(    8) = (   0.0000000   0.3367877   0.0000000), wk =   0.0208333
        k(    9) = (   0.0000000   0.3849002   0.0000000), wk =   0.0208333
        k(   10) = (   0.0000000   0.4330127   0.0000000), wk =   0.0208333
        k(   11) = (   0.0000000   0.4811252   0.0000000), wk =   0.0208333
        k(   12) = (   0.0000000   0.5292377   0.0000000), wk =   0.0208333
        k(   13) = (   0.0000000  -0.5773503   0.0000000), wk =   0.0104167
        k(   14) = (   0.0416667   0.0721688   0.0000000), wk =   0.0208333
        k(   15) = (   0.0416667   0.1202813   0.0000000), wk =   0.0416667
        k(   16) = (   0.0416667   0.1683938   0.0000000), wk =   0.0416667
        k(   17) = (   0.0416667   0.2165064   0.0000000), wk =   0.0416667
        k(   18) = (   0.0416667   0.2646189   0.0000000), wk =   0.0416667
        k(   19) = (   0.0416667   0.3127314   0.0000000), wk =   0.0416667
        k(   20) = (   0.0416667   0.3608439   0.0000000), wk =   0.0416667
        k(   21) = (   0.0416667   0.4089564   0.0000000), wk =   0.0416667
        k(   22) = (   0.0416667   0.4570690   0.0000000), wk =   0.0416667
        k(   23) = (   0.0416667   0.5051815   0.0000000), wk =   0.0416667
        k(   24) = (   0.0416667   0.5532940   0.0000000), wk =   0.0416667
        k(   25) = (   0.0833333   0.1443376   0.0000000), wk =   0.0208333
        k(   26) = (   0.0833333   0.1924501   0.0000000), wk =   0.0416667
        k(   27) = (   0.0833333   0.2405626   0.0000000), wk =   0.0416667
        k(   28) = (   0.0833333   0.2886751   0.0000000), wk =   0.0416667
        k(   29) = (   0.0833333   0.3367877   0.0000000), wk =   0.0416667
        k(   30) = (   0.0833333   0.3849002   0.0000000), wk =   0.0416667
        k(   31) = (   0.0833333   0.4330127   0.0000000), wk =   0.0416667
        k(   32) = (   0.0833333   0.4811252   0.0000000), wk =   0.0416667
        k(   33) = (   0.0833333   0.5292377   0.0000000), wk =   0.0416667
        k(   34) = (   0.0833333   0.5773503   0.0000000), wk =   0.0208333
        k(   35) = (   0.1250000   0.2165064   0.0000000), wk =   0.0208333
        k(   36) = (   0.1250000   0.2646189   0.0000000), wk =   0.0416667
        k(   37) = (   0.1250000   0.3127314   0.0000000), wk =   0.0416667
        k(   38) = (   0.1250000   0.3608439   0.0000000), wk =   0.0416667
        k(   39) = (   0.1250000   0.4089564   0.0000000), wk =   0.0416667
        k(   40) = (   0.1250000   0.4570690   0.0000000), wk =   0.0416667
        k(   41) = (   0.1250000   0.5051815   0.0000000), wk =   0.0416667
        k(   42) = (   0.1250000   0.5532940   0.0000000), wk =   0.0416667
        k(   43) = (   0.1666667   0.2886751   0.0000000), wk =   0.0208333
        k(   44) = (   0.1666667   0.3367877   0.0000000), wk =   0.0416667
        k(   45) = (   0.1666667   0.3849002   0.0000000), wk =   0.0416667
        k(   46) = (   0.1666667   0.4330127   0.0000000), wk =   0.0416667
        k(   47) = (   0.1666667   0.4811252   0.0000000), wk =   0.0416667
        k(   48) = (   0.1666667   0.5292377   0.0000000), wk =   0.0416667
        k(   49) = (   0.1666667   0.5773503   0.0000000), wk =   0.0208333
        k(   50) = (   0.2083333   0.3608439   0.0000000), wk =   0.0208333
        k(   51) = (   0.2083333   0.4089564   0.0000000), wk =   0.0416667
        k(   52) = (   0.2083333   0.4570690   0.0000000), wk =   0.0416667
        k(   53) = (   0.2083333   0.5051815   0.0000000), wk =   0.0416667
        k(   54) = (   0.2083333   0.5532940   0.0000000), wk =   0.0416667
        k(   55) = (   0.2500000   0.4330127   0.0000000), wk =   0.0208333
        k(   56) = (   0.2500000   0.4811252   0.0000000), wk =   0.0416667
        k(   57) = (   0.2500000   0.5292377   0.0000000), wk =   0.0416667
        k(   58) = (   0.2500000   0.5773503   0.0000000), wk =   0.0208333
        k(   59) = (   0.2916667   0.5051815   0.0000000), wk =   0.0208333
        k(   60) = (   0.2916667   0.5532940   0.0000000), wk =   0.0416667
        k(   61) = (   0.3333333   0.5773503   0.0000000), wk =   0.0069444

     Dense  grid:   455489 G-vectors     FFT dimensions: (  64,  64, 270)

     Smooth grid:   160939 G-vectors     FFT dimensions: (  45,  45, 192)

     Estimated max dynamical RAM per process >     322.30 MB

     Estimated total dynamical RAM >       1.89 GB

     Initial potential from superposition of free atoms

     starting charge   25.99991, renormalised to   28.00000

     negative rho (up, down):  5.949E-04 0.000E+00
     Starting wfcs are   18 randomized atomic wfcs

     total cpu time spent up to now is        6.5 secs

     Self-consistent Calculation

     iteration #  1     ecut=    60.00 Ry     beta= 0.70
     Davidson diagonalization with overlap
     ethr =  1.00E-02,  avg # of iterations =  8.8

     negative rho (up, down):  2.938E-05 0.000E+00

     total cpu time spent up to now is       27.4 secs

     total energy              =    -325.45761277 Ry
     estimated scf accuracy    <       2.46832469 Ry

     iteration #  2     ecut=    60.00 Ry     beta= 0.70
     Davidson diagonalization with overlap
     ethr =  8.82E-03,  avg # of iterations =  2.1

     negative rho (up, down):  4.265E-05 0.000E+00

     total cpu time spent up to now is       43.3 secs

     total energy              =    -326.35853584 Ry
     estimated scf accuracy    <       0.38220146 Ry

     iteration #  3     ecut=    60.00 Ry     beta= 0.70
     Davidson diagonalization with overlap
     ethr =  1.37E-03,  avg # of iterations =  2.2

     negative rho (up, down):  6.363E-05 0.000E+00

     total cpu time spent up to now is       60.1 secs

     total energy              =    -326.41660846 Ry
     estimated scf accuracy    <       0.00624511 Ry

     iteration #  4     ecut=    60.00 Ry     beta= 0.70
     Davidson diagonalization with overlap
     c_bands:  1 eigenvalues not converged
     ethr =  2.23E-05,  avg # of iterations =  8.4

     negative rho (up, down):  8.167E-05 0.000E+00

     total cpu time spent up to now is       80.6 secs

     total energy              =    -326.41864106 Ry
     estimated scf accuracy    <       0.00034402 Ry

     iteration #  5     ecut=    60.00 Ry     beta= 0.70
     Davidson diagonalization with overlap
     ethr =  1.23E-06,  avg # of iterations =  5.1

     negative rho (up, down):  8.311E-05 0.000E+00

     total cpu time spent up to now is       98.6 secs

     total energy              =    -326.41867728 Ry
     estimated scf accuracy    <       0.00003700 Ry

     iteration #  6     ecut=    60.00 Ry     beta= 0.70
     Davidson diagonalization with overlap
     ethr =  1.32E-07,  avg # of iterations =  2.2

     negative rho (up, down):  8.496E-05 0.000E+00

     total cpu time spent up to now is      112.1 secs

     total energy              =    -326.41868525 Ry
     estimated scf accuracy    <       0.00001445 Ry

     iteration #  7     ecut=    60.00 Ry     beta= 0.70
     Davidson diagonalization with overlap
     ethr =  5.16E-08,  avg # of iterations =  2.0

     negative rho (up, down):  8.563E-05 0.000E+00

     total cpu time spent up to now is      125.9 secs

     End of self-consistent calculation

          k = 0.0000 0.0000 0.0000 ( 20025 PWs)   bands (ev):

   -23.5287 -23.5287 -23.4502 -23.4502 -23.4350 -23.3650 -23.2235 -23.2235
   -23.1678 -23.1678 -11.3744  -5.2748  -2.4049  -2.4049  -1.9450  -0.0651
     1.0905   1.0905

          k = 0.0000 0.0481 0.0000 ( 20035 PWs)   bands (ev):

   -23.5296 -23.5294 -23.4518 -23.4490 -23.4327 -23.3638 -23.2260 -23.2259
   -23.1665 -23.1655 -11.3597  -5.2980  -2.6940  -2.4374  -1.6376  -0.0640
     1.0605   1.1463

          k = 0.0000 0.0962 0.0000 ( 20005 PWs)   bands (ev):

   -23.5320 -23.5315 -23.4555 -23.4456 -23.4275 -23.3601 -23.2325 -23.2320
   -23.1632 -23.1597 -11.3156  -5.3757  -3.0806  -2.5280  -1.2018  -0.0640
     1.0053   1.3056

          k = 0.0000 0.1443 0.0000 ( 20065 PWs)   bands (ev):

   -23.5352 -23.5345 -23.4601 -23.4406 -23.4211 -23.3540 -23.2411 -23.2404
   -23.1595 -23.1521 -11.2425  -5.5287  -3.3903  -2.6597  -0.8379  -0.0739
     1.0096   1.5486

          k = 0.0000 0.1925 0.0000 ( 20113 PWs)   bands (ev):

   -23.5385 -23.5379 -23.4654 -23.4347 -23.4149 -23.3457 -23.2505 -23.2497
   -23.1562 -23.1440 -11.1408  -5.7729  -3.5852  -2.8137  -0.6372  -0.0971
     1.1545   2.1787

          k = 0.0000 0.2406 0.0000 ( 20071 PWs)   bands (ev):

   -23.5412 -23.5411 -23.4713 -23.4283 -23.4096 -23.3355 -23.2600 -23.2589
   -23.1540 -23.1360 -11.0114  -6.0992  -3.6655  -2.9742  -0.6243  -0.1264
     1.4140   2.2893

          k = 0.0000 0.2887 0.0000 ( 20087 PWs)   bands (ev):

   -23.5443 -23.5428 -23.4775 -23.4220 -23.4058 -23.3241 -23.2690 -23.2671
   -23.1532 -23.1286 -10.8558  -6.4779  -3.6559  -3.1292  -0.7292  -0.1749
     1.6509   2.4646

          k = 0.0000 0.3368 0.0000 ( 20109 PWs)   bands (ev):

   -23.5469 -23.5432 -23.4840 -23.4162 -23.4035 -23.3124 -23.2771 -23.2736
   -23.1539 -23.1220 -10.6763  -6.8779  -3.5846  -3.2703  -0.8827  -0.2557
     1.8054   2.6673

          k = 0.0000 0.3849 0.0000 ( 20145 PWs)   bands (ev):

   -23.5490 -23.5424 -23.4907 -23.4112 -23.4026 -23.3022 -23.2842 -23.2772
   -23.1557 -23.1164 -10.4773  -7.2749  -3.4747  -3.3917  -1.0526  -0.3604
     1.9371   2.8824

          k = 0.0000 0.4330 0.0000 ( 20161 PWs)   bands (ev):

   -23.5505 -23.5404 -23.4973 -23.4071 -23.4025 -23.2965 -23.2898 -23.2757
   -23.1585 -23.1119 -10.2668  -7.6483  -3.4896  -3.3459  -1.2232  -0.4684
     2.0855   3.1009

          k = 0.0000 0.4811 0.0000 ( 20157 PWs)   bands (ev):

   -23.5516 -23.5376 -23.5034 -23.4042 -23.4030 -23.2955 -23.2940 -23.2700
   -23.1614 -23.1086 -10.0616  -7.9740  -3.5612  -3.2196  -1.3781  -0.5586
     2.2502   3.2802

          k = 0.0000 0.5292 0.0000 ( 20142 PWs)   bands (ev):

   -23.5522 -23.5348 -23.5082 -23.4034 -23.4024 -23.2965 -23.2959 -23.2648
   -23.1638 -23.1066  -9.8963  -8.2131  -3.6048  -3.1230  -1.4921  -0.6171
     2.4002   3.3371

          k = 0.0000-0.5774 0.0000 ( 20152 PWs)   bands (ev):

   -23.5524 -23.5335 -23.5102 -23.4036 -23.4018 -23.2974 -23.2961 -23.2628
   -23.1647 -23.1059  -9.8288  -8.3054  -3.6194  -3.0859  -1.5352  -0.6373
     2.4676   3.3874

          k = 0.0417 0.0722 0.0000 ( 20017 PWs)   bands (ev):

   -23.5312 -23.5309 -23.4543 -23.4468 -23.4290 -23.3613 -23.2306 -23.2299
   -23.1644 -23.1613 -11.3303  -5.3484  -2.9800  -2.5032  -1.3118  -0.0635
     1.0083   1.2625

          k = 0.0417 0.1203 0.0000 ( 20039 PWs)   bands (ev):

   -23.5339 -23.5336 -23.4582 -23.4430 -23.4231 -23.3565 -23.2381 -23.2370
   -23.1612 -23.1545 -11.2717  -5.4642  -3.2874  -2.6243  -0.9304  -0.0694
     0.9548   1.4842

          k = 0.0417 0.1684 0.0000 ( 20081 PWs)   bands (ev):

   -23.5373 -23.5365 -23.4630 -23.4379 -23.4164 -23.3494 -23.2471 -23.2456
   -23.1582 -23.1464 -11.1843  -5.6644  -3.5154  -2.7783  -0.6349  -0.0905
     0.9934   1.7791

          k = 0.0417 0.2165 0.0000 ( 20075 PWs)   bands (ev):

   -23.5409 -23.5392 -23.4686 -23.4321 -23.4102 -23.3404 -23.2563 -23.2547
   -23.1560 -23.1382 -11.0687  -5.9520  -3.6365  -2.9453  -0.5216  -0.1163
     1.1836   2.0955

          k = 0.0417 0.2646 0.0000 ( 20107 PWs)   bands (ev):

   -23.5443 -23.5411 -23.4746 -23.4260 -23.4051 -23.3298 -23.2653 -23.2635
   -23.1550 -23.1303 -10.9260  -6.3057  -3.6621  -3.1097  -0.5849  -0.1388
     1.4622   2.2915

          k = 0.0417 0.3127 0.0000 ( 20105 PWs)   bands (ev):

   -23.5472 -23.5420 -23.4810 -23.4203 -23.4015 -23.3184 -23.2737 -23.2709
   -23.1553 -23.1231 -10.7581  -6.6947  -3.6199  -3.2587  -0.7342  -0.1856
     1.6998   2.4967

          k = 0.0417 0.3608 0.0000 ( 20127 PWs)   bands (ev):

   -23.5496 -23.5418 -23.4877 -23.4151 -23.3994 -23.3076 -23.2811 -23.2760
   -23.1570 -23.1168 -10.5682  -7.0923  -3.5505  -3.3683  -0.9148  -0.2624
     1.8658   2.7216

          k = 0.0417 0.4090 0.0000 ( 20135 PWs)   bands (ev):

   -23.5515 -23.5403 -23.4943 -23.4107 -23.3986 -23.2997 -23.2873 -23.2769
   -23.1597 -23.1115 -10.3620  -7.4772  -3.5628  -3.3442  -1.1041  -0.3537
     2.0152   2.9062

          k = 0.0417 0.4571 0.0000 ( 20146 PWs)   bands (ev):

   -23.5528 -23.5379 -23.5007 -23.4071 -23.3988 -23.2969 -23.2920 -23.2727
   -23.1630 -23.1075 -10.1509  -7.8285  -3.6331  -3.2266  -1.2862  -0.4394
     2.1744   3.0330

          k = 0.0417 0.5052 0.0000 ( 20148 PWs)   bands (ev):

   -23.5537 -23.5351 -23.5062 -23.4044 -23.3995 -23.2971 -23.2951 -23.2668
   -23.1661 -23.1048  -9.9592  -8.1164  -3.6879  -3.1109  -1.4384  -0.5038
     2.3299   3.1196

          k = 0.0417 0.5533 0.0000 ( 20150 PWs)   bands (ev):

   -23.5541 -23.5329 -23.5098 -23.4023 -23.4007 -23.2977 -23.2964 -23.2631
   -23.1680 -23.1034  -9.8342  -8.2901  -3.7164  -3.0383  -1.5289  -0.5380
     2.4358   3.2185

          k = 0.0833 0.1443 0.0000 ( 20061 PWs)   bands (ev):

   -23.5369 -23.5361 -23.4620 -23.4395 -23.4166 -23.3507 -23.2460 -23.2440
   -23.1594 -23.1469 -11.1988  -5.6283  -3.4801  -2.7824  -0.6073  -0.0910
     0.8969   1.7810

          k = 0.0833 0.1925 0.0000 ( 20087 PWs)   bands (ev):

   -23.5407 -23.5382 -23.4668 -23.4350 -23.4095 -23.3432 -23.2546 -23.2522
   -23.1581 -23.1385 -11.0974  -5.8754  -3.6021  -2.9694  -0.3516  -0.1326
     0.9328   2.2349

          k = 0.0833 0.2406 0.0000 ( 20121 PWs)   bands (ev):

   -23.5447 -23.5398 -23.4725 -23.4299 -23.4028 -23.3341 -23.2632 -23.2607
   -23.1578 -23.1300 -10.9683  -6.1937  -3.6432  -3.1590  -0.3490  -0.0983
     1.1288   2.2437

          k = 0.0833 0.2887 0.0000 ( 20106 PWs)   bands (ev):

   -23.5483 -23.5406 -23.4787 -23.4246 -23.3972 -23.3240 -23.2713 -23.2685
   -23.1588 -23.1220 -10.8130  -6.5580  -3.6233  -3.3283  -0.5111  -0.0609
     1.4311   2.3291

          k = 0.0833 0.3368 0.0000 ( 20114 PWs)   bands (ev):

   -23.5515 -23.5404 -23.4853 -23.4194 -23.3933 -23.3140 -23.2786 -23.2744
   -23.1610 -23.1147 -10.6338  -6.9428  -3.6105  -3.4183  -0.7160  -0.0763
     1.7205   2.4794

          k = 0.0833 0.3849 0.0000 ( 20126 PWs)   bands (ev):

   -23.5540 -23.5392 -23.4919 -23.4144 -23.3913 -23.3056 -23.2850 -23.2769
   -23.1643 -23.1085 -10.4347  -7.3266  -3.6973  -3.3479  -0.9368  -0.1224
     1.9401   2.6387

          k = 0.0833 0.4330 0.0000 ( 20149 PWs)   bands (ev):

   -23.5559 -23.5371 -23.4983 -23.4099 -23.3909 -23.3011 -23.2902 -23.2745
   -23.1684 -23.1034 -10.2236  -7.6904  -3.7973  -3.2159  -1.1568  -0.1788
     2.1165   2.7374

          k = 0.0833 0.4811 0.0000 ( 20151 PWs)   bands (ev):

   -23.5572 -23.5344 -23.5042 -23.4058 -23.3920 -23.2999 -23.2940 -23.2689
   -23.1726 -23.0998 -10.0167  -8.0105  -3.8742  -3.0766  -1.3559  -0.2296
     2.2630   2.8237

          k = 0.0833 0.5292 0.0000 ( 20157 PWs)   bands (ev):

   -23.5580 -23.5317 -23.5088 -23.4023 -23.3940 -23.2996 -23.2967 -23.2639
   -23.1758 -23.0975  -9.8485  -8.2483  -3.9217  -2.9650  -1.5034  -0.2640
     2.3564   2.9570

          k = 0.0833 0.5774 0.0000 ( 20154 PWs)   bands (ev):

   -23.5582 -23.5305 -23.5107 -23.4004 -23.3954 -23.2993 -23.2979 -23.2619
   -23.1771 -23.0967  -9.7792  -8.3410  -3.9377  -2.9206  -1.5598  -0.2761
     2.3856   3.0784

          k = 0.1250 0.2165 0.0000 ( 20099 PWs)   bands (ev):

   -23.5448 -23.5394 -23.4716 -23.4315 -23.4016 -23.3358 -23.2625 -23.2597
   -23.1590 -23.1297 -10.9825  -6.1546  -3.6285  -3.1915  -0.2312  -0.0515
     0.9345   2.2528

          k = 0.1250 0.2646 0.0000 ( 20119 PWs)   bands (ev):

   -23.5489 -23.5398 -23.4774 -23.4272 -23.3940 -23.3276 -23.2701 -23.2670
   -23.1612 -23.1210 -10.8406  -6.4840  -3.6011  -3.4075  -0.3750   0.1433
     1.0935   2.3044

          k = 0.1250 0.3127 0.0000 ( 20122 PWs)   bands (ev):

   -23.5529 -23.5394 -23.4836 -23.4223 -23.3877 -23.3194 -23.2771 -23.2731
   -23.1645 -23.1127 -10.6734  -6.8428  -3.6460  -3.4835  -0.5695   0.2154
     1.4032   2.3727

          k = 0.1250 0.3608 0.0000 ( 20112 PWs)   bands (ev):

   -23.5563 -23.5382 -23.4901 -23.4172 -23.3834 -23.3122 -23.2834 -23.2763
   -23.1689 -23.1054 -10.4838  -7.2117  -3.8132  -3.3717  -0.7944   0.2191
     1.7493   2.4394

          k = 0.1250 0.4090 0.0000 ( 20146 PWs)   bands (ev):

   -23.5590 -23.5362 -23.4965 -23.4121 -23.3814 -23.3074 -23.2888 -23.2753
   -23.1743 -23.0991 -10.2772  -7.5735  -3.9573  -3.2247  -1.0315   0.1954
     2.0396   2.4640

          k = 0.1250 0.4571 0.0000 ( 20145 PWs)   bands (ev):

   -23.5611 -23.5336 -23.5025 -23.4071 -23.3817 -23.3051 -23.2932 -23.2706
   -23.1799 -23.0943 -10.0640  -7.9092  -4.0676  -3.0655  -1.2612   0.1642
     2.2171   2.5245

          k = 0.1250 0.5052 0.0000 ( 20141 PWs)   bands (ev):

   -23.5624 -23.5308 -23.5076 -23.4026 -23.3836 -23.3037 -23.2968 -23.2650
   -23.1849 -23.0910  -9.8673  -8.1904  -4.1418  -2.9183  -1.4571   0.1374
     2.2541   2.7126

          k = 0.1250 0.5533 0.0000 ( 20145 PWs)   bands (ev):

   -23.5631 -23.5286 -23.5109 -23.3993 -23.3857 -23.3022 -23.2995 -23.2613
   -23.1880 -23.0893  -9.7361  -8.3646  -4.1791  -2.8227  -1.5776   0.1221
     2.2495   2.9297

          k = 0.1667 0.2887 0.0000 ( 20113 PWs)   bands (ev):

   -23.5534 -23.5391 -23.4831 -23.4233 -23.3854 -23.3216 -23.2766 -23.2726
   -23.1658 -23.1120 -10.6866  -6.8073  -3.6574  -3.5117  -0.5223   0.4329
     1.1610   2.3769

          k = 0.1667 0.3368 0.0000 ( 20110 PWs)   bands (ev):

   -23.5575 -23.5378 -23.4892 -23.4187 -23.3779 -23.3168 -23.2826 -23.2759
   -23.1717 -23.1035 -10.5086  -7.1487  -3.8806  -3.3892  -0.7201   0.5906
     1.4154   2.4424

          k = 0.1667 0.3849 0.0000 ( 20115 PWs)   bands (ev):

   -23.5612 -23.5357 -23.4953 -23.4135 -23.3727 -23.3139 -23.2879 -23.2755
   -23.1784 -23.0961 -10.3099  -7.4939  -4.0704  -3.2378  -0.9460   0.6315
     1.7898   2.3689

          k = 0.1667 0.4330 0.0000 ( 20139 PWs)   bands (ev):

   -23.5641 -23.5332 -23.5012 -23.4081 -23.3705 -23.3120 -23.2926 -23.2717
   -23.1858 -23.0900 -10.0974  -7.8282  -4.2208  -3.0686  -1.1811   0.6310
     2.1578   2.2589

          k = 0.1667 0.4811 0.0000 ( 20145 PWs)   bands (ev):

   -23.5663 -23.5303 -23.5065 -23.4028 -23.3711 -23.3100 -23.2968 -23.2661
   -23.1928 -23.0855  -9.8852  -8.1314  -4.3291  -2.8976  -1.4033   0.6199
     2.1489   2.5040

          k = 0.1667 0.5292 0.0000 ( 20147 PWs)   bands (ev):

   -23.5676 -23.5276 -23.5106 -23.3985 -23.3732 -23.3074 -23.3006 -23.2611
   -23.1984 -23.0828  -9.7069  -8.3660  -4.3943  -2.7554  -1.5779   0.6098
     2.0874   2.7972

          k = 0.1667 0.5774 0.0000 ( 20135 PWs)   bands (ev):

   -23.5680 -23.5263 -23.5123 -23.3967 -23.3744 -23.3049 -23.3035 -23.2590
   -23.2006 -23.0818  -9.6304  -8.4614  -4.4161  -2.6957  -1.6486   0.6059
     2.0662   2.9635

          k = 0.2083 0.3608 0.0000 ( 20119 PWs)   bands (ev):

   -23.5619 -23.5356 -23.4949 -23.4140 -23.3689 -23.3169 -23.2876 -23.2755
   -23.1799 -23.0951 -10.3210  -7.4654  -4.1112  -3.2435  -0.9161   0.9236
     1.5365   2.4117

          k = 0.2083 0.4090 0.0000 ( 20133 PWs)   bands (ev):

   -23.5658 -23.5329 -23.5006 -23.4086 -23.3621 -23.3181 -23.2923 -23.2721
   -23.1889 -23.0878 -10.1146  -7.7828  -4.3051  -3.0734  -1.1357   1.0804
     1.8535   2.2398

          k = 0.2083 0.4571 0.0000 ( 20137 PWs)   bands (ev):

   -23.5688 -23.5301 -23.5057 -23.4030 -23.3590 -23.3179 -23.2969 -23.2668
   -23.1981 -23.0820  -9.8979  -8.0874  -4.4538  -2.8910  -1.3609   1.1265
     2.0658   2.2787

          k = 0.2083 0.5052 0.0000 ( 20163 PWs)   bands (ev):

   -23.5709 -23.5272 -23.5101 -23.3980 -23.3595 -23.3151 -23.3014 -23.2611
   -23.2063 -23.0780  -9.6900  -8.3561  -4.5541  -2.7159  -1.5672   1.1419
     1.9588   2.6495

          k = 0.2083 0.5533 0.0000 ( 20157 PWs)   bands (ev):

   -23.5720 -23.5250 -23.5131 -23.3948 -23.3611 -23.3108 -23.3060 -23.2571
   -23.2116 -23.0760  -9.5417  -8.5355  -4.6044  -2.5928  -1.7067   1.1477
     1.8994   2.9383

          k = 0.2500 0.4330 0.0000 ( 20149 PWs)   bands (ev):

   -23.5697 -23.5300 -23.5055 -23.4031 -23.3529 -23.3226 -23.2969 -23.2671
   -23.1999 -23.0808  -9.9024  -8.0711  -4.4976  -2.8897  -1.3448   1.4458
     2.0215   2.0837

          k = 0.2500 0.4811 0.0000 ( 20153 PWs)   bands (ev):

   -23.5727 -23.5270 -23.5098 -23.3978 -23.3476 -23.3237 -23.3017 -23.2613
   -23.2105 -23.0755  -9.6827  -8.3471  -4.6391  -2.6982  -1.5574   1.6058
     1.9376   2.3908

          k = 0.2500 0.5292 0.0000 ( 20133 PWs)   bands (ev):

   -23.5746 -23.5243 -23.5134 -23.3936 -23.3474 -23.3196 -23.3072 -23.2556
   -23.2193 -23.0723  -9.4815  -8.5828  -4.7253  -2.5242  -1.7452   1.6721
     1.8241   2.7946

          k = 0.2500 0.5774 0.0000 ( 20123 PWs)   bands (ev):

   -23.5753 -23.5229 -23.5151 -23.3919 -23.3481 -23.3135 -23.3132 -23.2529
   -23.2231 -23.0712  -9.3831  -8.6929  -4.7542  -2.4404  -1.8338   1.7178
     1.7568   3.0090

          k = 0.2917 0.5052 0.0000 ( 20137 PWs)   bands (ev):

   -23.5755 -23.5241 -23.5135 -23.3932 -23.3380 -23.3272 -23.3076 -23.2550
   -23.2220 -23.0710  -9.4600  -8.5992  -4.7670  -2.4999  -1.7588   1.7242
     2.1217   2.5562

          k = 0.2917 0.5533 0.0000 ( 20132 PWs)   bands (ev):

   -23.5770 -23.5216 -23.5163 -23.3904 -23.3354 -23.3227 -23.3147 -23.2490
   -23.2310 -23.0687  -9.2631  -8.8108  -4.8320  -2.3269  -1.9334   1.6810
     2.2578   2.8518

          k = 0.3333 0.5774 0.0000 ( 20133 PWs)   bands (ev):

   -23.5778 -23.5190 -23.5190 -23.3893 -23.3255 -23.3235 -23.3234 -23.2410
   -23.2409 -23.0675  -9.0385  -9.0384  -4.8683  -2.1286  -2.1286   1.6479
     2.6872   2.6872

     the Fermi energy is    -2.1286 ev

!    total energy              =    -326.41868721 Ry
     estimated scf accuracy    <       0.00000075 Ry
     smearing contrib. (-TS)   =      -0.00001962 Ry
     internal energy E=F+TS    =    -326.41866759 Ry

     The total energy is F=E-TS. E is the sum of the following terms:
     one-electron contribution =    -856.46060451 Ry
     hartree contribution      =     435.92872254 Ry
     xc contribution           =     -95.00825093 Ry
     ewald contribution        =     189.12146532 Ry

     convergence has been achieved in   7 iterations

     Writing output data file ../tmp/stanene.save/

     init_run     :      6.09s CPU      6.47s WALL (       1 calls)
     electrons    :    114.51s CPU    119.36s WALL (       1 calls)

     Called by init_run:
     wfcinit      :      4.86s CPU      5.19s WALL (       1 calls)
     potinit      :      0.41s CPU      0.42s WALL (       1 calls)
     hinit0       :      0.39s CPU      0.39s WALL (       1 calls)

     Called by electrons:
     c_bands      :     98.36s CPU    101.36s WALL (       7 calls)
     sum_band     :     12.96s CPU     14.13s WALL (       7 calls)
     v_of_rho     :      1.17s CPU      1.30s WALL (       8 calls)
     newd         :      2.08s CPU      2.65s WALL (       8 calls)
     mix_rho      :      0.19s CPU      0.19s WALL (       7 calls)

     Called by c_bands:
     init_us_2    :      0.85s CPU      0.85s WALL (     915 calls)
     cegterg      :     95.12s CPU     98.11s WALL (     427 calls)

     Called by *egterg:
     cdiaghg      :      1.49s CPU      1.51s WALL (    2297 calls)
     h_psi        :     59.66s CPU     62.78s WALL (    2358 calls)
     s_psi        :      4.64s CPU      4.68s WALL (    2358 calls)
     g_psi        :      0.43s CPU      0.43s WALL (    1870 calls)

     Called by h_psi:
     h_psi:calbec :      7.52s CPU      7.81s WALL (    2358 calls)
     vloc_psi     :     47.20s CPU     49.94s WALL (    2358 calls)
     add_vuspsi   :      4.68s CPU      4.77s WALL (    2358 calls)

     General routines
     calbec       :      9.75s CPU     10.10s WALL (    2785 calls)
     fft          :      1.27s CPU      1.35s WALL (     102 calls)
     ffts         :      0.03s CPU      0.03s WALL (      15 calls)
     fftw         :     49.29s CPU     51.94s WALL (   54484 calls)
     interpolate  :      0.15s CPU      0.17s WALL (       8 calls)

     Parallel routines
     fft_scatt_xy :      4.69s CPU      5.09s WALL (   54601 calls)
     fft_scatt_yz :     25.13s CPU     26.10s WALL (   54601 calls)

     PWSCF        :   2m 0.84s CPU   2m 6.34s WALL


   This run was terminated on:  22:46:52  23Jan2024            

=------------------------------------------------------------------------------=
   JOB DONE.
=------------------------------------------------------------------------------=
