
     Program PWSCF v.6.7MaX starts on 23Jan2024 at 22:53:21 

     This program is part of the open-source Quantum ESPRESSO suite
     for quantum simulation of materials; please cite
         "P. Giannozzi et al., J. Phys.:Condens. Matter 21 395502 (2009);
         "P. Giannozzi et al., J. Phys.:Condens. Matter 29 465901 (2017);
          URL http://www.quantum-espresso.org", 
     in publications or presentations arising from this work. More details at
     http://www.quantum-espresso.org/quote

     Parallel version (MPI), running on     6 processors

     MPI processes distributed on     1 nodes
     R & G space division:  proc/nbgrp/npool/nimage =       6
     Waiting for input...
     Reading input from standard input

     Current dimensions of program PWSCF are:
     Max number of different atomic species (ntypx) = 10
     Max number of k-points (npk) =  40000
     Max angular momentum in pseudopotentials (lmaxx) =  3

     Subspace diagonalization in iterative solution of the eigenvalue problem:
     one sub-group per band group will be used
     scalapack distributed-memory algorithm (size of sub-group:  2*  2 procs)


     Parallelization info
     --------------------
     sticks:   dense  smooth     PW     G-vecs:    dense   smooth      PW
     Min         431     214     61                75909    26818    4015
     Max         432     215     62                75924    26841    4025
     Sum        2587    1285    367               455489   160939   24117



     bravais-lattice index     =            4
     lattice parameter (alat)  =       8.8506  a.u.
     unit-cell volume          =    2563.9136 (a.u.)^3
     number of atoms/cell      =            2
     number of atomic types    =            1
     number of electrons       =        28.00
     number of Kohn-Sham states=           18
     kinetic-energy cutoff     =      60.0000  Ry
     charge density cutoff     =     480.0000  Ry
     scf convergence threshold =      1.0E-06
     mixing beta               =       0.7000
     number of iterations used =            8  plain     mixing
     Exchange-correlation= SLA  PW   PBE  PBE
                           (   1   4   3   4   0   0   0)

     celldm(1)=   8.850584  celldm(2)=   0.000000  celldm(3)=   4.270286
     celldm(4)=   0.000000  celldm(5)=   0.000000  celldm(6)=   0.000000

     crystal axes: (cart. coord. in units of alat)
               a(1) = (   1.000000   0.000000   0.000000 )  
               a(2) = (  -0.500000   0.866025   0.000000 )  
               a(3) = (   0.000000   0.000000   4.270286 )  

     reciprocal axes: (cart. coord. in units 2 pi/alat)
               b(1) = (  1.000000  0.577350 -0.000000 )  
               b(2) = (  0.000000  1.154701  0.000000 )  
               b(3) = (  0.000000 -0.000000  0.234176 )  


     PseudoPot. # 1 for Sn read from file:
     ../pseudo/Sn_pbe_v1.uspp.F.UPF
     MD5 check sum: 4cf58ce39ec5d5d420df3dd08604eb00
     Pseudo is Ultrasoft + core correction, Zval = 14.0
     Generated by new atomic code, or converted to UPF format
     Using radial grid of  891 points,  6 beta functions with: 
                l(1) =   0
                l(2) =   0
                l(3) =   1
                l(4) =   1
                l(5) =   2
                l(6) =   2
     Q(r) pseudized with  6 coefficients,  rinner =    1.200   1.200   1.200
                                                       1.200   1.200

     atomic species   valence    mass     pseudopotential
        Sn            14.00   118.71000     Sn( 1.00)

      6 Sym. Ops. (no inversion) found



   Cartesian axes

     site n.     atom                  positions (alat units)
         1           Sn  tau(   1) = (   0.0000000   0.5773503   2.1351428  )
         2           Sn  tau(   2) = (   0.5000000   0.2886751   1.9552503  )

     number of k points=    61  Gaussian smearing, width (Ry)=  0.0250
                       cart. coord. in units 2pi/alat
        k(    1) = (   0.0000000   0.0000000   0.0000000), wk =   0.0034722
        k(    2) = (   0.0000000   0.0481125   0.0000000), wk =   0.0208333
        k(    3) = (   0.0000000   0.0962250   0.0000000), wk =   0.0208333
        k(    4) = (   0.0000000   0.1443376   0.0000000), wk =   0.0208333
        k(    5) = (   0.0000000   0.1924501   0.0000000), wk =   0.0208333
        k(    6) = (   0.0000000   0.2405626   0.0000000), wk =   0.0208333
        k(    7) = (   0.0000000   0.2886751   0.0000000), wk =   0.0208333
        k(    8) = (   0.0000000   0.3367877   0.0000000), wk =   0.0208333
        k(    9) = (   0.0000000   0.3849002   0.0000000), wk =   0.0208333
        k(   10) = (   0.0000000   0.4330127   0.0000000), wk =   0.0208333
        k(   11) = (   0.0000000   0.4811252   0.0000000), wk =   0.0208333
        k(   12) = (   0.0000000   0.5292377   0.0000000), wk =   0.0208333
        k(   13) = (   0.0000000  -0.5773503   0.0000000), wk =   0.0104167
        k(   14) = (   0.0416667   0.0721688   0.0000000), wk =   0.0208333
        k(   15) = (   0.0416667   0.1202813   0.0000000), wk =   0.0416667
        k(   16) = (   0.0416667   0.1683938   0.0000000), wk =   0.0416667
        k(   17) = (   0.0416667   0.2165064   0.0000000), wk =   0.0416667
        k(   18) = (   0.0416667   0.2646189   0.0000000), wk =   0.0416667
        k(   19) = (   0.0416667   0.3127314   0.0000000), wk =   0.0416667
        k(   20) = (   0.0416667   0.3608439   0.0000000), wk =   0.0416667
        k(   21) = (   0.0416667   0.4089564   0.0000000), wk =   0.0416667
        k(   22) = (   0.0416667   0.4570690   0.0000000), wk =   0.0416667
        k(   23) = (   0.0416667   0.5051815   0.0000000), wk =   0.0416667
        k(   24) = (   0.0416667   0.5532940   0.0000000), wk =   0.0416667
        k(   25) = (   0.0833333   0.1443376   0.0000000), wk =   0.0208333
        k(   26) = (   0.0833333   0.1924501   0.0000000), wk =   0.0416667
        k(   27) = (   0.0833333   0.2405626   0.0000000), wk =   0.0416667
        k(   28) = (   0.0833333   0.2886751   0.0000000), wk =   0.0416667
        k(   29) = (   0.0833333   0.3367877   0.0000000), wk =   0.0416667
        k(   30) = (   0.0833333   0.3849002   0.0000000), wk =   0.0416667
        k(   31) = (   0.0833333   0.4330127   0.0000000), wk =   0.0416667
        k(   32) = (   0.0833333   0.4811252   0.0000000), wk =   0.0416667
        k(   33) = (   0.0833333   0.5292377   0.0000000), wk =   0.0416667
        k(   34) = (   0.0833333   0.5773503   0.0000000), wk =   0.0208333
        k(   35) = (   0.1250000   0.2165064   0.0000000), wk =   0.0208333
        k(   36) = (   0.1250000   0.2646189   0.0000000), wk =   0.0416667
        k(   37) = (   0.1250000   0.3127314   0.0000000), wk =   0.0416667
        k(   38) = (   0.1250000   0.3608439   0.0000000), wk =   0.0416667
        k(   39) = (   0.1250000   0.4089564   0.0000000), wk =   0.0416667
        k(   40) = (   0.1250000   0.4570690   0.0000000), wk =   0.0416667
        k(   41) = (   0.1250000   0.5051815   0.0000000), wk =   0.0416667
        k(   42) = (   0.1250000   0.5532940   0.0000000), wk =   0.0416667
        k(   43) = (   0.1666667   0.2886751   0.0000000), wk =   0.0208333
        k(   44) = (   0.1666667   0.3367877   0.0000000), wk =   0.0416667
        k(   45) = (   0.1666667   0.3849002   0.0000000), wk =   0.0416667
        k(   46) = (   0.1666667   0.4330127   0.0000000), wk =   0.0416667
        k(   47) = (   0.1666667   0.4811252   0.0000000), wk =   0.0416667
        k(   48) = (   0.1666667   0.5292377   0.0000000), wk =   0.0416667
        k(   49) = (   0.1666667   0.5773503   0.0000000), wk =   0.0208333
        k(   50) = (   0.2083333   0.3608439   0.0000000), wk =   0.0208333
        k(   51) = (   0.2083333   0.4089564   0.0000000), wk =   0.0416667
        k(   52) = (   0.2083333   0.4570690   0.0000000), wk =   0.0416667
        k(   53) = (   0.2083333   0.5051815   0.0000000), wk =   0.0416667
        k(   54) = (   0.2083333   0.5532940   0.0000000), wk =   0.0416667
        k(   55) = (   0.2500000   0.4330127   0.0000000), wk =   0.0208333
        k(   56) = (   0.2500000   0.4811252   0.0000000), wk =   0.0416667
        k(   57) = (   0.2500000   0.5292377   0.0000000), wk =   0.0416667
        k(   58) = (   0.2500000   0.5773503   0.0000000), wk =   0.0208333
        k(   59) = (   0.2916667   0.5051815   0.0000000), wk =   0.0208333
        k(   60) = (   0.2916667   0.5532940   0.0000000), wk =   0.0416667
        k(   61) = (   0.3333333   0.5773503   0.0000000), wk =   0.0069444

     Dense  grid:   455489 G-vectors     FFT dimensions: (  64,  64, 270)

     Smooth grid:   160939 G-vectors     FFT dimensions: (  45,  45, 192)

     Estimated max dynamical RAM per process >     322.30 MB

     Estimated total dynamical RAM >       1.89 GB

     Initial potential from superposition of free atoms

     starting charge   25.99991, renormalised to   28.00000

     negative rho (up, down):  5.949E-04 0.000E+00
     Starting wfcs are   18 randomized atomic wfcs

     total cpu time spent up to now is        6.6 secs

     Self-consistent Calculation

     iteration #  1     ecut=    60.00 Ry     beta= 0.70
     Davidson diagonalization with overlap
     ethr =  1.00E-02,  avg # of iterations =  8.8

     negative rho (up, down):  2.915E-06 0.000E+00

     total cpu time spent up to now is       29.2 secs

     total energy              =    -325.45153994 Ry
     estimated scf accuracy    <       2.47842190 Ry

     iteration #  2     ecut=    60.00 Ry     beta= 0.70
     Davidson diagonalization with overlap
     ethr =  8.85E-03,  avg # of iterations =  2.1

     negative rho (up, down):  1.436E-05 0.000E+00

     total cpu time spent up to now is       47.6 secs

     total energy              =    -326.35753575 Ry
     estimated scf accuracy    <       0.39153818 Ry

     iteration #  3     ecut=    60.00 Ry     beta= 0.70
     Davidson diagonalization with overlap
     ethr =  1.40E-03,  avg # of iterations =  2.1

     negative rho (up, down):  4.456E-05 0.000E+00

     total cpu time spent up to now is       65.0 secs

     total energy              =    -326.41704587 Ry
     estimated scf accuracy    <       0.00646346 Ry

     iteration #  4     ecut=    60.00 Ry     beta= 0.70
     Davidson diagonalization with overlap
     c_bands:  1 eigenvalues not converged
     ethr =  2.31E-05,  avg # of iterations =  8.4

     negative rho (up, down):  7.864E-05 0.000E+00

     total cpu time spent up to now is       87.2 secs

     total energy              =    -326.41909778 Ry
     estimated scf accuracy    <       0.00030565 Ry

     iteration #  5     ecut=    60.00 Ry     beta= 0.70
     Davidson diagonalization with overlap
     c_bands:  1 eigenvalues not converged
     ethr =  1.09E-06,  avg # of iterations =  5.5

     negative rho (up, down):  8.174E-05 0.000E+00

     total cpu time spent up to now is      104.3 secs

     total energy              =    -326.41912348 Ry
     estimated scf accuracy    <       0.00003307 Ry

     iteration #  6     ecut=    60.00 Ry     beta= 0.70
     Davidson diagonalization with overlap
     ethr =  1.18E-07,  avg # of iterations =  2.3

     negative rho (up, down):  8.460E-05 0.000E+00

     total cpu time spent up to now is      119.0 secs

     total energy              =    -326.41913074 Ry
     estimated scf accuracy    <       0.00002024 Ry

     iteration #  7     ecut=    60.00 Ry     beta= 0.70
     Davidson diagonalization with overlap
     ethr =  7.23E-08,  avg # of iterations =  2.0

     negative rho (up, down):  8.561E-05 0.000E+00

     total cpu time spent up to now is      132.9 secs

     End of self-consistent calculation

          k = 0.0000 0.0000 0.0000 ( 20025 PWs)   bands (ev):

   -23.5349 -23.5349 -23.4559 -23.4559 -23.4398 -23.3698 -23.2295 -23.2295
   -23.1742 -23.1742 -11.3807  -5.2786  -2.4117  -2.4117  -1.9506  -0.0671
     1.0841   1.0841

          k = 0.0000 0.0481 0.0000 ( 20035 PWs)   bands (ev):

   -23.5358 -23.5356 -23.4574 -23.4547 -23.4377 -23.3685 -23.2320 -23.2318
   -23.1728 -23.1719 -11.3660  -5.3018  -2.7003  -2.4442  -1.6436  -0.0661
     1.0542   1.1399

          k = 0.0000 0.0962 0.0000 ( 20005 PWs)   bands (ev):

   -23.5381 -23.5378 -23.4608 -23.4513 -23.4327 -23.3649 -23.2385 -23.2379
   -23.1696 -23.1661 -11.3220  -5.3798  -3.0865  -2.5347  -1.2079  -0.0662
     0.9992   1.2993

          k = 0.0000 0.1443 0.0000 ( 20065 PWs)   bands (ev):

   -23.5413 -23.5408 -23.4653 -23.4463 -23.4265 -23.3589 -23.2470 -23.2463
   -23.1658 -23.1585 -11.2489  -5.5332  -3.3957  -2.6664  -0.8440  -0.0762
     1.0039   1.5423

          k = 0.0000 0.1925 0.0000 ( 20113 PWs)   bands (ev):

   -23.5445 -23.5442 -23.4705 -23.4403 -23.4204 -23.3507 -23.2564 -23.2555
   -23.1626 -23.1504 -11.1472  -5.7778  -3.5902  -2.8205  -0.6433  -0.0997
     1.1493   2.1787

          k = 0.0000 0.2406 0.0000 ( 20071 PWs)   bands (ev):

   -23.5475 -23.5471 -23.4763 -23.4339 -23.4152 -23.3406 -23.2658 -23.2646
   -23.1604 -23.1425 -11.0178  -6.1046  -3.6701  -2.9809  -0.6300  -0.1295
     1.4097   2.2890

          k = 0.0000 0.2887 0.0000 ( 20087 PWs)   bands (ev):

   -23.5506 -23.5487 -23.4825 -23.4276 -23.4115 -23.3293 -23.2748 -23.2727
   -23.1596 -23.1351 -10.8622  -6.4835  -3.6602  -3.1359  -0.7345  -0.1785
     1.6480   2.4645

          k = 0.0000 0.3368 0.0000 ( 20109 PWs)   bands (ev):

   -23.5533 -23.5491 -23.4890 -23.4217 -23.4093 -23.3177 -23.2829 -23.2790
   -23.1602 -23.1286 -10.6827  -6.8838  -3.5887  -3.2770  -0.8877  -0.2599
     1.8035   2.6673

          k = 0.0000 0.3849 0.0000 ( 20145 PWs)   bands (ev):

   -23.5554 -23.5482 -23.4957 -23.4167 -23.4085 -23.3077 -23.2899 -23.2823
   -23.1621 -23.1230 -10.4836  -7.2809  -3.4787  -3.3985  -1.0572  -0.3652
     1.9355   2.8825

          k = 0.0000 0.4330 0.0000 ( 20161 PWs)   bands (ev):

   -23.5570 -23.5462 -23.5023 -23.4126 -23.4086 -23.3020 -23.2956 -23.2807
   -23.1649 -23.1185 -10.2731  -7.6544  -3.4964  -3.3498  -1.2274  -0.4736
     2.0840   3.1008

          k = 0.0000 0.4811 0.0000 ( 20157 PWs)   bands (ev):

   -23.5581 -23.5433 -23.5085 -23.4096 -23.4091 -23.3009 -23.2997 -23.2750
   -23.1679 -23.1152 -10.0679  -7.9802  -3.5680  -3.2235  -1.3819  -0.5642
     2.2487   3.2796

          k = 0.0000 0.5292 0.0000 ( 20142 PWs)   bands (ev):

   -23.5587 -23.5405 -23.5133 -23.4096 -23.4078 -23.3022 -23.3012 -23.2698
   -23.1703 -23.1132  -9.9026  -8.2193  -3.6115  -3.1269  -1.4957  -0.6230
     2.3986   3.3363

          k = 0.0000-0.5774 0.0000 ( 20152 PWs)   bands (ev):

   -23.5589 -23.5392 -23.5152 -23.4098 -23.4072 -23.3030 -23.3014 -23.2678
   -23.1712 -23.1126  -9.8351  -8.3116  -3.6262  -3.0899  -1.5387  -0.6432
     2.4658   3.3832

          k = 0.0417 0.0722 0.0000 ( 20017 PWs)   bands (ev):

   -23.5373 -23.5371 -23.4597 -23.4526 -23.4341 -23.3661 -23.2366 -23.2359
   -23.1707 -23.1677 -11.3366  -5.3524  -2.9860  -2.5100  -1.3179  -0.0656
     1.0022   1.2562

          k = 0.0417 0.1203 0.0000 ( 20039 PWs)   bands (ev):

   -23.5401 -23.5398 -23.4634 -23.4487 -23.4284 -23.3613 -23.2441 -23.2429
   -23.1676 -23.1609 -11.2781  -5.4685  -3.2930  -2.6311  -0.9366  -0.0716
     0.9489   1.4779

          k = 0.0417 0.1684 0.0000 ( 20081 PWs)   bands (ev):

   -23.5435 -23.5426 -23.4681 -23.4435 -23.4219 -23.3543 -23.2530 -23.2515
   -23.1646 -23.1529 -11.1906  -5.6691  -3.5205  -2.7850  -0.6411  -0.0930
     0.9879   1.7730

          k = 0.0417 0.2165 0.0000 ( 20075 PWs)   bands (ev):

   -23.5472 -23.5452 -23.4736 -23.4377 -23.4158 -23.3454 -23.2622 -23.2605
   -23.1623 -23.1447 -11.0750  -5.9572  -3.6412  -2.9520  -0.5275  -0.1192
     1.1787   2.0892

          k = 0.0417 0.2646 0.0000 ( 20107 PWs)   bands (ev):

   -23.5506 -23.5471 -23.4796 -23.4316 -23.4108 -23.3349 -23.2711 -23.2691
   -23.1613 -23.1368 -10.9324  -6.3113  -3.6665  -3.1165  -0.5903  -0.1424
     1.4582   2.2883

          k = 0.0417 0.3127 0.0000 ( 20105 PWs)   bands (ev):

   -23.5536 -23.5480 -23.4860 -23.4258 -23.4073 -23.3237 -23.2795 -23.2764
   -23.1617 -23.1296 -10.7645  -6.7005  -3.6242  -3.2654  -0.7392  -0.1898
     1.6972   2.4938

          k = 0.0417 0.3608 0.0000 ( 20127 PWs)   bands (ev):

   -23.5560 -23.5476 -23.4927 -23.4206 -23.4053 -23.3130 -23.2869 -23.2812
   -23.1634 -23.1234 -10.5745  -7.0983  -3.5551  -3.3744  -0.9193  -0.2672
     1.8639   2.7196

          k = 0.0417 0.4090 0.0000 ( 20135 PWs)   bands (ev):

   -23.5579 -23.5462 -23.4993 -23.4162 -23.4045 -23.3053 -23.2930 -23.2820
   -23.1661 -23.1182 -10.3683  -7.4833  -3.5690  -3.3487  -1.1083  -0.3589
     2.0137   2.9042

          k = 0.0417 0.4571 0.0000 ( 20146 PWs)   bands (ev):

   -23.5593 -23.5437 -23.5057 -23.4127 -23.4047 -23.3025 -23.2976 -23.2777
   -23.1695 -23.1142 -10.1573  -7.8346  -3.6396  -3.2307  -1.2900  -0.4449
     2.1729   3.0301

          k = 0.0417 0.5052 0.0000 ( 20148 PWs)   bands (ev):

   -23.5602 -23.5408 -23.5113 -23.4100 -23.4054 -23.3027 -23.3006 -23.2719
   -23.1725 -23.1114  -9.9655  -8.1226  -3.6945  -3.1149  -1.4420  -0.5096
     2.3283   3.1168

          k = 0.0417 0.5533 0.0000 ( 20150 PWs)   bands (ev):

   -23.5606 -23.5386 -23.5149 -23.4081 -23.4065 -23.3034 -23.3017 -23.2681
   -23.1745 -23.1101  -9.8405  -8.2964  -3.7231  -3.0423  -1.5324  -0.5439
     2.4339   3.2157

          k = 0.0833 0.1443 0.0000 ( 20061 PWs)   bands (ev):

   -23.5431 -23.5422 -23.4671 -23.4451 -23.4221 -23.3557 -23.2519 -23.2499
   -23.1657 -23.1534 -11.2051  -5.6330  -3.4854  -2.7892  -0.6134  -0.0935
     0.8914   1.7749

          k = 0.0833 0.1925 0.0000 ( 20087 PWs)   bands (ev):

   -23.5470 -23.5443 -23.4719 -23.4407 -23.4151 -23.3482 -23.2604 -23.2581
   -23.1644 -23.1450 -11.1037  -5.8805  -3.6069  -2.9762  -0.3576  -0.1354
     0.9276   2.1184

          k = 0.0833 0.2406 0.0000 ( 20121 PWs)   bands (ev):

   -23.5510 -23.5458 -23.4775 -23.4355 -23.4084 -23.3393 -23.2690 -23.2665
   -23.1641 -23.1366 -10.9747  -6.1991  -3.6476  -3.1657  -0.3536  -0.1027
     1.1241   2.2418

          k = 0.0833 0.2887 0.0000 ( 20106 PWs)   bands (ev):

   -23.5547 -23.5465 -23.4837 -23.4302 -23.4029 -23.3294 -23.2770 -23.2741
   -23.1651 -23.1285 -10.8194  -6.5637  -3.6276  -3.3349  -0.5153  -0.0658
     1.4271   2.3265

          k = 0.0833 0.3368 0.0000 ( 20114 PWs)   bands (ev):

   -23.5579 -23.5462 -23.4903 -23.4249 -23.3991 -23.3194 -23.2843 -23.2797
   -23.1673 -23.1213 -10.6401  -6.9487  -3.6158  -3.4238  -0.7201  -0.0815
     1.7177   2.4758

          k = 0.0833 0.3849 0.0000 ( 20126 PWs)   bands (ev):

   -23.5605 -23.5450 -23.4969 -23.4200 -23.3971 -23.3112 -23.2907 -23.2820
   -23.1707 -23.1151 -10.4411  -7.3327  -3.7036  -3.3522  -0.9407  -0.1279
     1.9382   2.6346

          k = 0.0833 0.4330 0.0000 ( 20149 PWs)   bands (ev):

   -23.5624 -23.5428 -23.5034 -23.4155 -23.3969 -23.3068 -23.2958 -23.2795
   -23.1748 -23.1101 -10.2300  -7.6965  -3.8038  -3.2200  -1.1606  -0.1845
     2.1149   2.7341

          k = 0.0833 0.4811 0.0000 ( 20151 PWs)   bands (ev):

   -23.5637 -23.5401 -23.5093 -23.4114 -23.3980 -23.3056 -23.2996 -23.2739
   -23.1790 -23.1064 -10.0230  -8.0167  -3.8808  -3.0807  -1.3595  -0.2355
     2.2612   2.8208

          k = 0.0833 0.5292 0.0000 ( 20157 PWs)   bands (ev):

   -23.5645 -23.5374 -23.5139 -23.4079 -23.4001 -23.3053 -23.3022 -23.2689
   -23.1822 -23.1042  -9.8548  -8.2545  -3.9283  -2.9690  -1.5069  -0.2700
     2.3542   2.9544

          k = 0.0833 0.5774 0.0000 ( 20154 PWs)   bands (ev):

   -23.5648 -23.5361 -23.5158 -23.4058 -23.4016 -23.3050 -23.3032 -23.2670
   -23.1835 -23.1034  -9.7855  -8.3473  -3.9443  -2.9246  -1.5633  -0.2821
     2.3833   3.0756

          k = 0.1250 0.2165 0.0000 ( 20099 PWs)   bands (ev):

   -23.5511 -23.5453 -23.4767 -23.4371 -23.4073 -23.3409 -23.2682 -23.2654
   -23.1654 -23.1363 -10.9888  -6.1600  -3.6330  -3.1982  -0.2341  -0.0577
     0.9296   2.2518

          k = 0.1250 0.2646 0.0000 ( 20119 PWs)   bands (ev):

   -23.5553 -23.5457 -23.4824 -23.4327 -23.3998 -23.3329 -23.2758 -23.2727
   -23.1675 -23.1275 -10.8469  -6.4897  -3.6054  -3.4142  -0.3783   0.1373
     1.0889   2.3026

          k = 0.1250 0.3127 0.0000 ( 20122 PWs)   bands (ev):

   -23.5593 -23.5453 -23.4886 -23.4278 -23.3935 -23.3249 -23.2828 -23.2785
   -23.1708 -23.1193 -10.6797  -6.8486  -3.6522  -3.4881  -0.5730   0.2096
     1.3991   2.3701

          k = 0.1250 0.3608 0.0000 ( 20112 PWs)   bands (ev):

   -23.5627 -23.5440 -23.4951 -23.4228 -23.3892 -23.3179 -23.2890 -23.2815
   -23.1752 -23.1120 -10.4902  -7.2177  -3.8197  -3.3757  -0.7980   0.2133
     1.7461   2.4360

          k = 0.1250 0.4090 0.0000 ( 20146 PWs)   bands (ev):

   -23.5655 -23.5419 -23.5015 -23.4177 -23.3873 -23.3133 -23.2943 -23.2804
   -23.1805 -23.1058 -10.2835  -7.5796  -3.9639  -3.2286  -1.0351   0.1895
     2.0375   2.4603

          k = 0.1250 0.4571 0.0000 ( 20145 PWs)   bands (ev):

   -23.5676 -23.5393 -23.5075 -23.4127 -23.3876 -23.3109 -23.2988 -23.2756
   -23.1862 -23.1010 -10.0703  -7.9154  -4.0742  -3.0694  -1.2648   0.1582
     2.2151   2.5212

          k = 0.1250 0.5052 0.0000 ( 20141 PWs)   bands (ev):

   -23.5690 -23.5364 -23.5127 -23.4081 -23.3897 -23.3094 -23.3023 -23.2700
   -23.1912 -23.0977  -9.8736  -8.1966  -4.1485  -2.9222  -1.4606   0.1313
     2.2515   2.7104

          k = 0.1250 0.5533 0.0000 ( 20145 PWs)   bands (ev):

   -23.5697 -23.5342 -23.5160 -23.4047 -23.3919 -23.3079 -23.3050 -23.2663
   -23.1943 -23.0960  -9.7425  -8.3708  -4.1858  -2.8266  -1.5811   0.1161
     2.2467   2.9277

          k = 0.1667 0.2887 0.0000 ( 20113 PWs)   bands (ev):

   -23.5598 -23.5450 -23.4881 -23.4289 -23.3911 -23.3271 -23.2822 -23.2781
   -23.1721 -23.1186 -10.6930  -6.8132  -3.6641  -3.5158  -0.5257   0.4267
     1.1566   2.3748

          k = 0.1667 0.3368 0.0000 ( 20110 PWs)   bands (ev):

   -23.5640 -23.5435 -23.4942 -23.4242 -23.3837 -23.3227 -23.2881 -23.2811
   -23.1779 -23.1102 -10.5149  -7.1546  -3.8873  -3.3932  -0.7235   0.5845
     1.4112   2.4397

          k = 0.1667 0.3849 0.0000 ( 20115 PWs)   bands (ev):

   -23.5677 -23.5414 -23.5004 -23.4190 -23.3785 -23.3199 -23.2935 -23.2806
   -23.1847 -23.1028 -10.3163  -7.4999  -4.0771  -3.2417  -0.9495   0.6255
     1.7862   2.3657

          k = 0.1667 0.4330 0.0000 ( 20139 PWs)   bands (ev):

   -23.5707 -23.5388 -23.5063 -23.4136 -23.3764 -23.3180 -23.2982 -23.2767
   -23.1920 -23.0967 -10.1037  -7.8343  -4.2274  -3.0725  -1.1846   0.6250
     2.1553   2.2554

          k = 0.1667 0.4811 0.0000 ( 20145 PWs)   bands (ev):

   -23.5729 -23.5358 -23.5116 -23.4084 -23.3772 -23.3160 -23.3024 -23.2711
   -23.1990 -23.0922  -9.8916  -8.1376  -4.3357  -2.9014  -1.4068   0.6138
     2.1457   2.5018

          k = 0.1667 0.5292 0.0000 ( 20147 PWs)   bands (ev):

   -23.5742 -23.5331 -23.5157 -23.4040 -23.3794 -23.3132 -23.3062 -23.2661
   -23.2046 -23.0895  -9.7132  -8.3722  -4.4009  -2.7592  -1.5814   0.6036
     2.0842   2.7954

          k = 0.1667 0.5774 0.0000 ( 20135 PWs)   bands (ev):

   -23.5746 -23.5318 -23.5174 -23.4021 -23.3807 -23.3106 -23.3091 -23.2641
   -23.2068 -23.0886  -9.6367  -8.4677  -4.4227  -2.6995  -1.6521   0.5997
     2.0631   2.9617

          k = 0.2083 0.3608 0.0000 ( 20119 PWs)   bands (ev):

   -23.5684 -23.5412 -23.5000 -23.4195 -23.3747 -23.3230 -23.2932 -23.2806
   -23.1861 -23.1017 -10.3273  -7.4715  -4.1179  -3.2473  -0.9195   0.9174
     1.5323   2.4084

          k = 0.2083 0.4090 0.0000 ( 20133 PWs)   bands (ev):

   -23.5723 -23.5385 -23.5056 -23.4141 -23.3679 -23.3243 -23.2979 -23.2771
   -23.1951 -23.0945 -10.1210  -7.7889  -4.3117  -3.0772  -1.1391   1.0744
     1.8495   2.2365

          k = 0.2083 0.4571 0.0000 ( 20137 PWs)   bands (ev):

   -23.5754 -23.5356 -23.5108 -23.4086 -23.3649 -23.3240 -23.3024 -23.2719
   -23.2042 -23.0887  -9.9042  -8.0936  -4.4605  -2.8947  -1.3644   1.1204
     2.0623   2.2756

          k = 0.2083 0.5052 0.0000 ( 20163 PWs)   bands (ev):

   -23.5776 -23.5326 -23.5152 -23.4035 -23.3656 -23.3211 -23.3070 -23.2662
   -23.2123 -23.0847  -9.6963  -8.3623  -4.5608  -2.7196  -1.5707   1.1358
     1.9554   2.6470

          k = 0.2083 0.5533 0.0000 ( 20157 PWs)   bands (ev):

   -23.5787 -23.5304 -23.5182 -23.4002 -23.3673 -23.3166 -23.3117 -23.2622
   -23.2176 -23.0827  -9.5480  -8.5417  -4.6111  -2.5965  -1.7102   1.1416
     1.8962   2.9362

          k = 0.2500 0.4330 0.0000 ( 20149 PWs)   bands (ev):

   -23.5763 -23.5355 -23.5105 -23.4086 -23.3587 -23.3288 -23.3024 -23.2721
   -23.2059 -23.0875  -9.9088  -8.0772  -4.5043  -2.8934  -1.3483   1.4398
     2.0174   2.0801

          k = 0.2500 0.4811 0.0000 ( 20153 PWs)   bands (ev):

   -23.5794 -23.5324 -23.5149 -23.4032 -23.3535 -23.3299 -23.3074 -23.2663
   -23.2164 -23.0823  -9.6890  -8.3533  -4.6458  -2.7019  -1.5609   1.6002
     1.9338   2.3869

          k = 0.2500 0.5292 0.0000 ( 20133 PWs)   bands (ev):

   -23.5813 -23.5296 -23.5185 -23.3990 -23.3535 -23.3256 -23.3129 -23.2608
   -23.2251 -23.0790  -9.4878  -8.5890  -4.7320  -2.5279  -1.7487   1.6667
     1.8201   2.7913

          k = 0.2500 0.5774 0.0000 ( 20123 PWs)   bands (ev):

   -23.5819 -23.5282 -23.5202 -23.3973 -23.3543 -23.3193 -23.3190 -23.2580
   -23.2289 -23.0779  -9.3894  -8.6991  -4.7609  -2.4440  -1.8374   1.7117
     1.7535   3.0060

          k = 0.2917 0.5052 0.0000 ( 20137 PWs)   bands (ev):

   -23.5822 -23.5294 -23.5186 -23.3986 -23.3438 -23.3335 -23.3133 -23.2602
   -23.2279 -23.0778  -9.4663  -8.6055  -4.7736  -2.5036  -1.7624   1.7207
     2.1158   2.5518

          k = 0.2917 0.5533 0.0000 ( 20132 PWs)   bands (ev):

   -23.5836 -23.5269 -23.5215 -23.3958 -23.3414 -23.3288 -23.3206 -23.2543
   -23.2367 -23.0755  -9.2694  -8.8171  -4.8387  -2.3306  -1.9370   1.6777
     2.2518   2.8473

          k = 0.3333 0.5774 0.0000 ( 20133 PWs)   bands (ev):

   -23.5845 -23.5242 -23.5242 -23.3946 -23.3310 -23.3299 -23.3295 -23.2464
   -23.2464 -23.0743  -9.0448  -9.0447  -4.8750  -2.1322  -2.1321   1.6446
     2.6815   2.6816

     the Fermi energy is    -2.1262 ev

!    total energy              =    -326.41913367 Ry
     estimated scf accuracy    <       0.00000063 Ry
     smearing contrib. (-TS)   =      -0.00150695 Ry
     internal energy E=F+TS    =    -326.41762672 Ry

     The total energy is F=E-TS. E is the sum of the following terms:
     one-electron contribution =    -856.44652719 Ry
     hartree contribution      =     435.91520543 Ry
     xc contribution           =     -95.00777028 Ry
     ewald contribution        =     189.12146532 Ry

     convergence has been achieved in   7 iterations

     Writing output data file ../tmp/stanene.save/

     init_run     :      6.26s CPU      6.52s WALL (       1 calls)
     electrons    :    121.68s CPU    126.40s WALL (       1 calls)

     Called by init_run:
     wfcinit      :      5.03s CPU      5.18s WALL (       1 calls)
     potinit      :      0.38s CPU      0.41s WALL (       1 calls)
     hinit0       :      0.43s CPU      0.43s WALL (       1 calls)

     Called by electrons:
     c_bands      :    103.92s CPU    106.96s WALL (       7 calls)
     sum_band     :     14.08s CPU     15.14s WALL (       7 calls)
     v_of_rho     :      1.26s CPU      1.36s WALL (       8 calls)
     newd         :      2.43s CPU      2.95s WALL (       8 calls)
     mix_rho      :      0.22s CPU      0.22s WALL (       7 calls)

     Called by c_bands:
     init_us_2    :      0.85s CPU      0.86s WALL (     915 calls)
     cegterg      :    100.59s CPU    103.61s WALL (     427 calls)

     Called by *egterg:
     cdiaghg      :      1.64s CPU      1.66s WALL (    2334 calls)
     h_psi        :     63.77s CPU     66.68s WALL (    2395 calls)
     s_psi        :      4.66s CPU      4.69s WALL (    2395 calls)
     g_psi        :      0.40s CPU      0.41s WALL (    1907 calls)

     Called by h_psi:
     h_psi:calbec :      8.02s CPU      8.26s WALL (    2395 calls)
     vloc_psi     :     50.72s CPU     53.35s WALL (    2395 calls)
     add_vuspsi   :      4.79s CPU      4.83s WALL (    2395 calls)

     General routines
     calbec       :     10.44s CPU     10.74s WALL (    2822 calls)
     fft          :      1.32s CPU      1.40s WALL (     102 calls)
     ffts         :      0.04s CPU      0.04s WALL (      15 calls)
     fftw         :     53.52s CPU     56.15s WALL (   53816 calls)
     interpolate  :      0.13s CPU      0.14s WALL (       8 calls)

     Parallel routines
     fft_scatt_xy :      4.82s CPU      5.16s WALL (   53933 calls)
     fft_scatt_yz :     29.16s CPU     30.28s WALL (   53933 calls)

     PWSCF        :   2m 8.20s CPU   2m13.48s WALL


   This run was terminated on:  22:55:35  23Jan2024            

=------------------------------------------------------------------------------=
   JOB DONE.
=------------------------------------------------------------------------------=
