
     Program PWSCF v.6.7MaX starts on 23Jan2024 at 22:57:53 

     This program is part of the open-source Quantum ESPRESSO suite
     for quantum simulation of materials; please cite
         "P. Giannozzi et al., J. Phys.:Condens. Matter 21 395502 (2009);
         "P. Giannozzi et al., J. Phys.:Condens. Matter 29 465901 (2017);
          URL http://www.quantum-espresso.org", 
     in publications or presentations arising from this work. More details at
     http://www.quantum-espresso.org/quote

     Parallel version (MPI), running on     6 processors

     MPI processes distributed on     1 nodes
     R & G space division:  proc/nbgrp/npool/nimage =       6
     Waiting for input...
     Reading input from standard input

     Current dimensions of program PWSCF are:
     Max number of different atomic species (ntypx) = 10
     Max number of k-points (npk) =  40000
     Max angular momentum in pseudopotentials (lmaxx) =  3

     Subspace diagonalization in iterative solution of the eigenvalue problem:
     one sub-group per band group will be used
     scalapack distributed-memory algorithm (size of sub-group:  2*  2 procs)


     Parallelization info
     --------------------
     sticks:   dense  smooth     PW     G-vecs:    dense   smooth      PW
     Min         431     214     61                75909    26818    4015
     Max         432     215     62                75924    26841    4025
     Sum        2587    1285    367               455489   160939   24117



     bravais-lattice index     =            4
     lattice parameter (alat)  =       8.8506  a.u.
     unit-cell volume          =    2563.9136 (a.u.)^3
     number of atoms/cell      =            2
     number of atomic types    =            1
     number of electrons       =        28.00
     number of Kohn-Sham states=           18
     kinetic-energy cutoff     =      60.0000  Ry
     charge density cutoff     =     480.0000  Ry
     scf convergence threshold =      1.0E-06
     mixing beta               =       0.7000
     number of iterations used =            8  plain     mixing
     Exchange-correlation= SLA  PW   PBE  PBE
                           (   1   4   3   4   0   0   0)

     celldm(1)=   8.850584  celldm(2)=   0.000000  celldm(3)=   4.270286
     celldm(4)=   0.000000  celldm(5)=   0.000000  celldm(6)=   0.000000

     crystal axes: (cart. coord. in units of alat)
               a(1) = (   1.000000   0.000000   0.000000 )  
               a(2) = (  -0.500000   0.866025   0.000000 )  
               a(3) = (   0.000000   0.000000   4.270286 )  

     reciprocal axes: (cart. coord. in units 2 pi/alat)
               b(1) = (  1.000000  0.577350 -0.000000 )  
               b(2) = (  0.000000  1.154701  0.000000 )  
               b(3) = (  0.000000 -0.000000  0.234176 )  


     PseudoPot. # 1 for Sn read from file:
     ../pseudo/Sn_pbe_v1.uspp.F.UPF
     MD5 check sum: 4cf58ce39ec5d5d420df3dd08604eb00
     Pseudo is Ultrasoft + core correction, Zval = 14.0
     Generated by new atomic code, or converted to UPF format
     Using radial grid of  891 points,  6 beta functions with: 
                l(1) =   0
                l(2) =   0
                l(3) =   1
                l(4) =   1
                l(5) =   2
                l(6) =   2
     Q(r) pseudized with  6 coefficients,  rinner =    1.200   1.200   1.200
                                                       1.200   1.200

     atomic species   valence    mass     pseudopotential
        Sn            14.00   118.71000     Sn( 1.00)

      6 Sym. Ops. (no inversion) found



   Cartesian axes

     site n.     atom                  positions (alat units)
         1           Sn  tau(   1) = (   0.0000000   0.5773503   2.1351428  )
         2           Sn  tau(   2) = (   0.5000000   0.2886751   1.9552503  )

     number of k points=    61  Gaussian smearing, width (Ry)=  0.0350
                       cart. coord. in units 2pi/alat
        k(    1) = (   0.0000000   0.0000000   0.0000000), wk =   0.0034722
        k(    2) = (   0.0000000   0.0481125   0.0000000), wk =   0.0208333
        k(    3) = (   0.0000000   0.0962250   0.0000000), wk =   0.0208333
        k(    4) = (   0.0000000   0.1443376   0.0000000), wk =   0.0208333
        k(    5) = (   0.0000000   0.1924501   0.0000000), wk =   0.0208333
        k(    6) = (   0.0000000   0.2405626   0.0000000), wk =   0.0208333
        k(    7) = (   0.0000000   0.2886751   0.0000000), wk =   0.0208333
        k(    8) = (   0.0000000   0.3367877   0.0000000), wk =   0.0208333
        k(    9) = (   0.0000000   0.3849002   0.0000000), wk =   0.0208333
        k(   10) = (   0.0000000   0.4330127   0.0000000), wk =   0.0208333
        k(   11) = (   0.0000000   0.4811252   0.0000000), wk =   0.0208333
        k(   12) = (   0.0000000   0.5292377   0.0000000), wk =   0.0208333
        k(   13) = (   0.0000000  -0.5773503   0.0000000), wk =   0.0104167
        k(   14) = (   0.0416667   0.0721688   0.0000000), wk =   0.0208333
        k(   15) = (   0.0416667   0.1202813   0.0000000), wk =   0.0416667
        k(   16) = (   0.0416667   0.1683938   0.0000000), wk =   0.0416667
        k(   17) = (   0.0416667   0.2165064   0.0000000), wk =   0.0416667
        k(   18) = (   0.0416667   0.2646189   0.0000000), wk =   0.0416667
        k(   19) = (   0.0416667   0.3127314   0.0000000), wk =   0.0416667
        k(   20) = (   0.0416667   0.3608439   0.0000000), wk =   0.0416667
        k(   21) = (   0.0416667   0.4089564   0.0000000), wk =   0.0416667
        k(   22) = (   0.0416667   0.4570690   0.0000000), wk =   0.0416667
        k(   23) = (   0.0416667   0.5051815   0.0000000), wk =   0.0416667
        k(   24) = (   0.0416667   0.5532940   0.0000000), wk =   0.0416667
        k(   25) = (   0.0833333   0.1443376   0.0000000), wk =   0.0208333
        k(   26) = (   0.0833333   0.1924501   0.0000000), wk =   0.0416667
        k(   27) = (   0.0833333   0.2405626   0.0000000), wk =   0.0416667
        k(   28) = (   0.0833333   0.2886751   0.0000000), wk =   0.0416667
        k(   29) = (   0.0833333   0.3367877   0.0000000), wk =   0.0416667
        k(   30) = (   0.0833333   0.3849002   0.0000000), wk =   0.0416667
        k(   31) = (   0.0833333   0.4330127   0.0000000), wk =   0.0416667
        k(   32) = (   0.0833333   0.4811252   0.0000000), wk =   0.0416667
        k(   33) = (   0.0833333   0.5292377   0.0000000), wk =   0.0416667
        k(   34) = (   0.0833333   0.5773503   0.0000000), wk =   0.0208333
        k(   35) = (   0.1250000   0.2165064   0.0000000), wk =   0.0208333
        k(   36) = (   0.1250000   0.2646189   0.0000000), wk =   0.0416667
        k(   37) = (   0.1250000   0.3127314   0.0000000), wk =   0.0416667
        k(   38) = (   0.1250000   0.3608439   0.0000000), wk =   0.0416667
        k(   39) = (   0.1250000   0.4089564   0.0000000), wk =   0.0416667
        k(   40) = (   0.1250000   0.4570690   0.0000000), wk =   0.0416667
        k(   41) = (   0.1250000   0.5051815   0.0000000), wk =   0.0416667
        k(   42) = (   0.1250000   0.5532940   0.0000000), wk =   0.0416667
        k(   43) = (   0.1666667   0.2886751   0.0000000), wk =   0.0208333
        k(   44) = (   0.1666667   0.3367877   0.0000000), wk =   0.0416667
        k(   45) = (   0.1666667   0.3849002   0.0000000), wk =   0.0416667
        k(   46) = (   0.1666667   0.4330127   0.0000000), wk =   0.0416667
        k(   47) = (   0.1666667   0.4811252   0.0000000), wk =   0.0416667
        k(   48) = (   0.1666667   0.5292377   0.0000000), wk =   0.0416667
        k(   49) = (   0.1666667   0.5773503   0.0000000), wk =   0.0208333
        k(   50) = (   0.2083333   0.3608439   0.0000000), wk =   0.0208333
        k(   51) = (   0.2083333   0.4089564   0.0000000), wk =   0.0416667
        k(   52) = (   0.2083333   0.4570690   0.0000000), wk =   0.0416667
        k(   53) = (   0.2083333   0.5051815   0.0000000), wk =   0.0416667
        k(   54) = (   0.2083333   0.5532940   0.0000000), wk =   0.0416667
        k(   55) = (   0.2500000   0.4330127   0.0000000), wk =   0.0208333
        k(   56) = (   0.2500000   0.4811252   0.0000000), wk =   0.0416667
        k(   57) = (   0.2500000   0.5292377   0.0000000), wk =   0.0416667
        k(   58) = (   0.2500000   0.5773503   0.0000000), wk =   0.0208333
        k(   59) = (   0.2916667   0.5051815   0.0000000), wk =   0.0208333
        k(   60) = (   0.2916667   0.5532940   0.0000000), wk =   0.0416667
        k(   61) = (   0.3333333   0.5773503   0.0000000), wk =   0.0069444

     Dense  grid:   455489 G-vectors     FFT dimensions: (  64,  64, 270)

     Smooth grid:   160939 G-vectors     FFT dimensions: (  45,  45, 192)

     Estimated max dynamical RAM per process >     322.30 MB

     Estimated total dynamical RAM >       1.89 GB

     Initial potential from superposition of free atoms

     starting charge   25.99991, renormalised to   28.00000

     negative rho (up, down):  5.949E-04 0.000E+00
     Starting wfcs are   18 randomized atomic wfcs

     total cpu time spent up to now is        6.2 secs

     Self-consistent Calculation

     iteration #  1     ecut=    60.00 Ry     beta= 0.70
     Davidson diagonalization with overlap
     ethr =  1.00E-02,  avg # of iterations =  8.8

     negative rho (up, down):  5.862E-08 0.000E+00

     total cpu time spent up to now is       28.6 secs

     total energy              =    -325.44498405 Ry
     estimated scf accuracy    <       2.48865906 Ry

     iteration #  2     ecut=    60.00 Ry     beta= 0.70
     Davidson diagonalization with overlap
     ethr =  8.89E-03,  avg # of iterations =  2.1

     negative rho (up, down):  2.899E-06 0.000E+00

     total cpu time spent up to now is       45.3 secs

     total energy              =    -326.35720701 Ry
     estimated scf accuracy    <       0.40007955 Ry

     iteration #  3     ecut=    60.00 Ry     beta= 0.70
     Davidson diagonalization with overlap
     ethr =  1.43E-03,  avg # of iterations =  2.1

     negative rho (up, down):  2.654E-05 0.000E+00

     total cpu time spent up to now is       63.3 secs

     total energy              =    -326.41797964 Ry
     estimated scf accuracy    <       0.00667610 Ry

     iteration #  4     ecut=    60.00 Ry     beta= 0.70
     Davidson diagonalization with overlap
     c_bands:  1 eigenvalues not converged
     ethr =  2.38E-05,  avg # of iterations =  8.6

     negative rho (up, down):  7.470E-05 0.000E+00

     total cpu time spent up to now is       84.1 secs

     total energy              =    -326.42005031 Ry
     estimated scf accuracy    <       0.00027715 Ry

     iteration #  5     ecut=    60.00 Ry     beta= 0.70
     Davidson diagonalization with overlap
     ethr =  9.90E-07,  avg # of iterations =  5.7

     negative rho (up, down):  8.004E-05 0.000E+00

     total cpu time spent up to now is      100.3 secs

     total energy              =    -326.42006867 Ry
     estimated scf accuracy    <       0.00003145 Ry

     iteration #  6     ecut=    60.00 Ry     beta= 0.70
     Davidson diagonalization with overlap
     ethr =  1.12E-07,  avg # of iterations =  2.4

     negative rho (up, down):  8.403E-05 0.000E+00

     total cpu time spent up to now is      116.2 secs

     total energy              =    -326.42007520 Ry
     estimated scf accuracy    <       0.00002456 Ry

     iteration #  7     ecut=    60.00 Ry     beta= 0.70
     Davidson diagonalization with overlap
     ethr =  8.77E-08,  avg # of iterations =  2.0

     negative rho (up, down):  8.557E-05 0.000E+00

     total cpu time spent up to now is      132.5 secs

     End of self-consistent calculation

          k = 0.0000 0.0000 0.0000 ( 20025 PWs)   bands (ev):

   -23.5467 -23.5467 -23.4670 -23.4670 -23.4493 -23.3791 -23.2410 -23.2410
   -23.1863 -23.1863 -11.3926  -5.2855  -2.4242  -2.4242  -1.9612  -0.0710
     1.0725   1.0725

          k = 0.0000 0.0481 0.0000 ( 20035 PWs)   bands (ev):

   -23.5476 -23.5475 -23.4682 -23.4658 -23.4475 -23.3779 -23.2435 -23.2433
   -23.1850 -23.1840 -11.3779  -5.3088  -2.7121  -2.4567  -1.6549  -0.0700
     1.0428   1.1283

          k = 0.0000 0.0962 0.0000 ( 20005 PWs)   bands (ev):

   -23.5499 -23.5496 -23.4713 -23.4624 -23.4429 -23.3744 -23.2499 -23.2494
   -23.1817 -23.1783 -11.3338  -5.3872  -3.0976  -2.5472  -1.2194  -0.0703
     0.9881   1.2878

          k = 0.0000 0.1443 0.0000 ( 20065 PWs)   bands (ev):

   -23.5530 -23.5527 -23.4755 -23.4573 -23.4370 -23.3685 -23.2584 -23.2576
   -23.1779 -23.1708 -11.2607  -5.5414  -3.4060  -2.6789  -0.8556  -0.0807
     0.9933   1.5308

          k = 0.0000 0.1925 0.0000 ( 20113 PWs)   bands (ev):

   -23.5561 -23.5561 -23.4805 -23.4512 -23.4311 -23.3605 -23.2677 -23.2667
   -23.1747 -23.1628 -11.1590  -5.7869  -3.5995  -2.8330  -0.6546  -0.1046
     1.1397   2.1783

          k = 0.0000 0.2406 0.0000 ( 20071 PWs)   bands (ev):

   -23.5596 -23.5587 -23.4862 -23.4448 -23.4261 -23.3507 -23.2771 -23.2756
   -23.1725 -23.1549 -11.0296  -6.1145  -3.6786  -2.9934  -0.6408  -0.1352
     1.4017   2.2871

          k = 0.0000 0.2887 0.0000 ( 20087 PWs)   bands (ev):

   -23.5627 -23.5602 -23.4923 -23.4384 -23.4226 -23.3395 -23.2860 -23.2834
   -23.1717 -23.1476 -10.8740  -6.4940  -3.6681  -3.1484  -0.7446  -0.1854
     1.6425   2.4636

          k = 0.0000 0.3368 0.0000 ( 20109 PWs)   bands (ev):

   -23.5654 -23.5605 -23.4989 -23.4325 -23.4206 -23.3282 -23.2941 -23.2894
   -23.1724 -23.1410 -10.6945  -6.8947  -3.5963  -3.2895  -0.8969  -0.2678
     1.7998   2.6675

          k = 0.0000 0.3849 0.0000 ( 20145 PWs)   bands (ev):

   -23.5676 -23.5595 -23.5056 -23.4274 -23.4199 -23.3183 -23.3010 -23.2924
   -23.1743 -23.1355 -10.4954  -7.2921  -3.4861  -3.4109  -1.0657  -0.3742
     1.9325   2.8826

          k = 0.0000 0.4330 0.0000 ( 20161 PWs)   bands (ev):

   -23.5693 -23.5574 -23.5122 -23.4232 -23.4201 -23.3127 -23.3066 -23.2905
   -23.1771 -23.1311 -10.2849  -7.6657  -3.5088  -3.3571  -1.2351  -0.4834
     2.0812   3.1008

          k = 0.0000 0.4811 0.0000 ( 20157 PWs)   bands (ev):

   -23.5704 -23.5545 -23.5184 -23.4207 -23.4202 -23.3115 -23.3107 -23.2848
   -23.1802 -23.1278 -10.0797  -7.9916  -3.5804  -3.2308  -1.3889  -0.5747
     2.2458   3.2785

          k = 0.0000 0.5292 0.0000 ( 20142 PWs)   bands (ev):

   -23.5711 -23.5516 -23.5233 -23.4213 -23.4184 -23.3132 -23.3116 -23.2797
   -23.1826 -23.1259  -9.9143  -8.2308  -3.6240  -3.1343  -1.5023  -0.6339
     2.3954   3.3346

          k = 0.0000-0.5774 0.0000 ( 20152 PWs)   bands (ev):

   -23.5713 -23.5503 -23.5252 -23.4215 -23.4178 -23.3141 -23.3118 -23.2777
   -23.1836 -23.1252  -9.8468  -8.3232  -3.6386  -3.0972  -1.5451  -0.6542
     2.4624   3.3755

          k = 0.0417 0.0722 0.0000 ( 20017 PWs)   bands (ev):

   -23.5491 -23.5490 -23.4702 -23.4636 -23.4442 -23.3756 -23.2480 -23.2474
   -23.1829 -23.1799 -11.3485  -5.3597  -2.9973  -2.5225  -1.3294  -0.0697
     0.9910   1.2446

          k = 0.0417 0.1203 0.0000 ( 20039 PWs)   bands (ev):

   -23.5519 -23.5516 -23.4736 -23.4597 -23.4388 -23.3709 -23.2555 -23.2543
   -23.1797 -23.1731 -11.2899  -5.4764  -3.3036  -2.6435  -0.9481  -0.0759
     0.9381   1.4665

          k = 0.0417 0.1684 0.0000 ( 20081 PWs)   bands (ev):

   -23.5554 -23.5544 -23.4782 -23.4545 -23.4326 -23.3641 -23.2643 -23.2628
   -23.1767 -23.1652 -11.2025  -5.6778  -3.5302  -2.7975  -0.6526  -0.0977
     0.9777   1.7617

          k = 0.0417 0.2165 0.0000 ( 20075 PWs)   bands (ev):

   -23.5591 -23.5569 -23.4835 -23.4486 -23.4266 -23.3554 -23.2735 -23.2717
   -23.1744 -23.1570 -11.0869  -5.9668  -3.6501  -2.9644  -0.5385  -0.1247
     1.1694   2.0791

          k = 0.0417 0.2646 0.0000 ( 20107 PWs)   bands (ev):

   -23.5626 -23.5587 -23.4895 -23.4425 -23.4218 -23.3451 -23.2823 -23.2801
   -23.1734 -23.1492 -10.9442  -6.3215  -3.6747  -3.1289  -0.6003  -0.1491
     1.4508   2.2825

          k = 0.0417 0.3127 0.0000 ( 20105 PWs)   bands (ev):

   -23.5657 -23.5594 -23.4959 -23.4366 -23.4184 -23.3341 -23.2906 -23.2870
   -23.1738 -23.1421 -10.7763  -6.7113  -3.6320  -3.2777  -0.7483  -0.1978
     1.6922   2.4884

          k = 0.0417 0.3608 0.0000 ( 20127 PWs)   bands (ev):

   -23.5682 -23.5590 -23.5025 -23.4314 -23.4165 -23.3236 -23.2979 -23.2915
   -23.1755 -23.1359 -10.5863  -7.1093  -3.5635  -3.3858  -0.9277  -0.2761
     1.8604   2.7162

          k = 0.0417 0.4090 0.0000 ( 20135 PWs)   bands (ev):

   -23.5702 -23.5574 -23.5092 -23.4270 -23.4159 -23.3161 -23.3040 -23.2919
   -23.1783 -23.1307 -10.3801  -7.4945  -3.5804  -3.3570  -1.1161  -0.3687
     2.0107   2.9004

          k = 0.0417 0.4571 0.0000 ( 20146 PWs)   bands (ev):

   -23.5716 -23.5548 -23.5157 -23.4236 -23.4160 -23.3134 -23.3086 -23.2875
   -23.1817 -23.1268 -10.1690  -7.8460  -3.6517  -3.2383  -1.2972  -0.4554
     2.1700   3.0251

          k = 0.0417 0.5052 0.0000 ( 20148 PWs)   bands (ev):

   -23.5725 -23.5519 -23.5213 -23.4211 -23.4166 -23.3135 -23.3112 -23.2817
   -23.1848 -23.1241  -9.9772  -8.1341  -3.7067  -3.1224  -1.4488  -0.5206
     2.3251   3.1116

          k = 0.0417 0.5533 0.0000 ( 20150 PWs)   bands (ev):

   -23.5730 -23.5496 -23.5249 -23.4197 -23.4173 -23.3144 -23.3122 -23.2780
   -23.1868 -23.1227  -9.8522  -8.3079  -3.7353  -3.0498  -1.5389  -0.5550
     2.4304   3.2104

          k = 0.0833 0.1443 0.0000 ( 20061 PWs)   bands (ev):

   -23.5551 -23.5538 -23.4771 -23.4561 -23.4328 -23.3654 -23.2632 -23.2612
   -23.1778 -23.1657 -11.2170  -5.6416  -3.4952  -2.8016  -0.6250  -0.0981
     0.8811   1.7635

          k = 0.0833 0.1925 0.0000 ( 20087 PWs)   bands (ev):

   -23.5590 -23.5558 -23.4818 -23.4515 -23.4259 -23.3581 -23.2717 -23.2693
   -23.1765 -23.1573 -11.1156  -5.8899  -3.6159  -2.9886  -0.3690  -0.1408
     0.9179   2.1085

          k = 0.0833 0.2406 0.0000 ( 20121 PWs)   bands (ev):

   -23.5630 -23.5573 -23.4874 -23.4464 -23.4194 -23.3494 -23.2801 -23.2775
   -23.1762 -23.1490 -10.9865  -6.2092  -3.6560  -3.1781  -0.3621  -0.1111
     1.1151   2.2383

          k = 0.0833 0.2887 0.0000 ( 20106 PWs)   bands (ev):

   -23.5668 -23.5579 -23.4935 -23.4409 -23.4140 -23.3397 -23.2881 -23.2849
   -23.1771 -23.1410 -10.8312  -6.5743  -3.6357  -3.3470  -0.5232  -0.0751
     1.4195   2.3215

          k = 0.0833 0.3368 0.0000 ( 20114 PWs)   bands (ev):

   -23.5701 -23.5575 -23.5001 -23.4357 -23.4103 -23.3301 -23.2954 -23.2902
   -23.1794 -23.1339 -10.6519  -6.9596  -3.6256  -3.4338  -0.7276  -0.0913
     1.7124   2.4693

          k = 0.0833 0.3849 0.0000 ( 20126 PWs)   bands (ev):

   -23.5727 -23.5562 -23.5068 -23.4308 -23.4084 -23.3222 -23.3016 -23.2921
   -23.1827 -23.1277 -10.4528  -7.3438  -3.7152  -3.3602  -0.9480  -0.1382
     1.9346   2.6280

          k = 0.0833 0.4330 0.0000 ( 20149 PWs)   bands (ev):

   -23.5747 -23.5539 -23.5133 -23.4263 -23.4082 -23.3179 -23.3066 -23.2894
   -23.1869 -23.1227 -10.2417  -7.7078  -3.8158  -3.2275  -1.1675  -0.1952
     2.1119   2.7279

          k = 0.0833 0.4811 0.0000 ( 20151 PWs)   bands (ev):

   -23.5761 -23.5511 -23.5192 -23.4223 -23.4095 -23.3166 -23.3103 -23.2838
   -23.1911 -23.1191 -10.0348  -8.0282  -3.8929  -3.0881  -1.3662  -0.2465
     2.2579   2.8153

          k = 0.0833 0.5292 0.0000 ( 20157 PWs)   bands (ev):

   -23.5769 -23.5483 -23.5239 -23.4187 -23.4116 -23.3162 -23.3128 -23.2788
   -23.1944 -23.1169  -9.8666  -8.2660  -3.9404  -2.9763  -1.5135  -0.2812
     2.3501   2.9496

          k = 0.0833 0.5774 0.0000 ( 20154 PWs)   bands (ev):

   -23.5772 -23.5471 -23.5258 -23.4164 -23.4134 -23.3160 -23.3137 -23.2768
   -23.1957 -23.1161  -9.7972  -8.3588  -3.9564  -2.9320  -1.5698  -0.2934
     2.3788   3.0705

          k = 0.1250 0.2165 0.0000 ( 20099 PWs)   bands (ev):

   -23.5632 -23.5568 -23.4865 -23.4479 -23.4182 -23.3510 -23.2794 -23.2766
   -23.1774 -23.1487 -11.0007  -6.1700  -3.6414  -3.2106  -0.2397  -0.0693
     0.9205   2.2494

          k = 0.1250 0.2646 0.0000 ( 20119 PWs)   bands (ev):

   -23.5675 -23.5571 -23.4922 -23.4435 -23.4108 -23.3433 -23.2868 -23.2836
   -23.1795 -23.1400 -10.8587  -6.5002  -3.6134  -3.4265  -0.3845   0.1261
     1.0803   2.2993

          k = 0.1250 0.3127 0.0000 ( 20122 PWs)   bands (ev):

   -23.5715 -23.5566 -23.4985 -23.4386 -23.4046 -23.3356 -23.2937 -23.2891
   -23.1828 -23.1319 -10.6916  -6.8595  -3.6636  -3.4965  -0.5795   0.1987
     1.3913   2.3652

          k = 0.1250 0.3608 0.0000 ( 20112 PWs)   bands (ev):

   -23.5750 -23.5552 -23.5050 -23.4335 -23.4004 -23.3290 -23.2999 -23.2917
   -23.1872 -23.1246 -10.5020  -7.2288  -3.8318  -3.3833  -0.8047   0.2024
     1.7401   2.4295

          k = 0.1250 0.4090 0.0000 ( 20146 PWs)   bands (ev):

   -23.5779 -23.5530 -23.5114 -23.4284 -23.3986 -23.3246 -23.3051 -23.2902
   -23.1925 -23.1185 -10.2953  -7.5909  -3.9760  -3.2360  -1.0418   0.1785
     2.0335   2.4534

          k = 0.1250 0.4571 0.0000 ( 20145 PWs)   bands (ev):

   -23.5800 -23.5502 -23.5175 -23.4235 -23.3991 -23.3221 -23.3095 -23.2855
   -23.1982 -23.1137 -10.0821  -7.9268  -4.0864  -3.0766  -1.2714   0.1470
     2.2114   2.5153

          k = 0.1250 0.5052 0.0000 ( 20141 PWs)   bands (ev):

   -23.5814 -23.5472 -23.5227 -23.4188 -23.4013 -23.3205 -23.3130 -23.2799
   -23.2032 -23.1104  -9.8853  -8.2081  -4.1606  -2.9294  -1.4672   0.1200
     2.2465   2.7062

          k = 0.1250 0.5533 0.0000 ( 20145 PWs)   bands (ev):

   -23.5821 -23.5450 -23.5260 -23.4153 -23.4037 -23.3189 -23.3157 -23.2762
   -23.2064 -23.1087  -9.7542  -8.3823  -4.1980  -2.8339  -1.5876   0.1047
     2.2412   2.9239

          k = 0.1667 0.2887 0.0000 ( 20113 PWs)   bands (ev):

   -23.5720 -23.5562 -23.4979 -23.4396 -23.4022 -23.3379 -23.2931 -23.2887
   -23.1841 -23.1311 -10.7048  -6.8240  -3.6764  -3.5233  -0.5319   0.4151
     1.1484   2.3707

          k = 0.1667 0.3368 0.0000 ( 20110 PWs)   bands (ev):

   -23.5763 -23.5546 -23.5041 -23.4350 -23.3948 -23.3339 -23.2990 -23.2914
   -23.1898 -23.1228 -10.5267  -7.1657  -3.8996  -3.4005  -0.7299   0.5732
     1.4032   2.4347

          k = 0.1667 0.3849 0.0000 ( 20115 PWs)   bands (ev):

   -23.5800 -23.5524 -23.5103 -23.4298 -23.3898 -23.3314 -23.3042 -23.2905
   -23.1965 -23.1154 -10.3281  -7.5112  -4.0894  -3.2489  -0.9560   0.6143
     1.7793   2.3597

          k = 0.1667 0.4330 0.0000 ( 20139 PWs)   bands (ev):

   -23.5831 -23.5496 -23.5162 -23.4244 -23.3878 -23.3296 -23.3089 -23.2865
   -23.2038 -23.1094 -10.1155  -7.8457  -4.2397  -3.0796  -1.1912   0.6137
     2.1505   2.2487

          k = 0.1667 0.4811 0.0000 ( 20145 PWs)   bands (ev):

   -23.5853 -23.5466 -23.5215 -23.4191 -23.3887 -23.3273 -23.3131 -23.2810
   -23.2108 -23.1050  -9.9033  -8.1491  -4.3480  -2.9085  -1.4134   0.6024
     2.1398   2.4976

          k = 0.1667 0.5292 0.0000 ( 20147 PWs)   bands (ev):

   -23.5867 -23.5438 -23.5257 -23.4146 -23.3912 -23.3244 -23.3170 -23.2761
   -23.2164 -23.1022  -9.7249  -8.3837  -4.4132  -2.7662  -1.5879   0.5922
     2.0782   2.7919

          k = 0.1667 0.5774 0.0000 ( 20135 PWs)   bands (ev):

   -23.5872 -23.5425 -23.5275 -23.4126 -23.3925 -23.3217 -23.3199 -23.2740
   -23.2186 -23.1013  -9.6484  -8.4792  -4.4350  -2.7065  -1.6586   0.5883
     2.0570   2.9582

          k = 0.2083 0.3608 0.0000 ( 20119 PWs)   bands (ev):

   -23.5808 -23.5522 -23.5099 -23.4303 -23.3859 -23.3346 -23.3039 -23.2905
   -23.1980 -23.1144 -10.3391  -7.4827  -4.1303  -3.2544  -0.9260   0.9060
     1.5245   2.4022

          k = 0.2083 0.4090 0.0000 ( 20133 PWs)   bands (ev):

   -23.5848 -23.5493 -23.5155 -23.4249 -23.3792 -23.3361 -23.3086 -23.2870
   -23.2068 -23.1072 -10.1327  -7.8002  -4.3241  -3.0842  -1.1456   1.0631
     1.8418   2.2302

          k = 0.2083 0.4571 0.0000 ( 20137 PWs)   bands (ev):

   -23.5879 -23.5463 -23.5208 -23.4193 -23.3763 -23.3358 -23.3132 -23.2817
   -23.2158 -23.1014  -9.9160  -8.1050  -4.4728  -2.9017  -1.3709   1.1092
     2.0557   2.2695

          k = 0.2083 0.5052 0.0000 ( 20163 PWs)   bands (ev):

   -23.5901 -23.5432 -23.5253 -23.4141 -23.3773 -23.3326 -23.3178 -23.2762
   -23.2239 -23.0975  -9.7081  -8.3738  -4.5731  -2.7265  -1.5772   1.1244
     1.9491   2.6422

          k = 0.2083 0.5533 0.0000 ( 20157 PWs)   bands (ev):

   -23.5912 -23.5409 -23.5283 -23.4107 -23.3792 -23.3278 -23.3227 -23.2722
   -23.2291 -23.0955  -9.5597  -8.5533  -4.6234  -2.6034  -1.7168   1.1301
     1.8899   2.9323

          k = 0.2500 0.4330 0.0000 ( 20149 PWs)   bands (ev):

   -23.5888 -23.5462 -23.5205 -23.4193 -23.3699 -23.3408 -23.3132 -23.2820
   -23.2175 -23.1002  -9.9205  -8.0887  -4.5166  -2.9004  -1.3549   1.4287
     2.0096   2.0733

          k = 0.2500 0.4811 0.0000 ( 20153 PWs)   bands (ev):

   -23.5919 -23.5430 -23.5250 -23.4138 -23.3649 -23.3418 -23.3182 -23.2763
   -23.2278 -23.0950  -9.7007  -8.3648  -4.6581  -2.7088  -1.5675   1.5898
     1.9265   2.3795

          k = 0.2500 0.5292 0.0000 ( 20133 PWs)   bands (ev):

   -23.5939 -23.5401 -23.5286 -23.4095 -23.3651 -23.3372 -23.3239 -23.2708
   -23.2364 -23.0918  -9.4995  -8.6006  -4.7443  -2.5347  -1.7553   1.6565
     1.8126   2.7851

          k = 0.2500 0.5774 0.0000 ( 20123 PWs)   bands (ev):

   -23.5945 -23.5386 -23.5303 -23.4078 -23.3661 -23.3305 -23.3303 -23.2682
   -23.2401 -23.0907  -9.4011  -8.7107  -4.7732  -2.4508  -1.8440   1.7003
     1.7472   3.0006

          k = 0.2917 0.5052 0.0000 ( 20137 PWs)   bands (ev):

   -23.5948 -23.5399 -23.5287 -23.4091 -23.3550 -23.3456 -23.3244 -23.2703
   -23.2390 -23.0905  -9.4780  -8.6170  -4.7860  -2.5104  -1.7690   1.7140
     2.1046   2.5435

          k = 0.2917 0.5533 0.0000 ( 20132 PWs)   bands (ev):

   -23.5963 -23.5372 -23.5316 -23.4062 -23.3530 -23.3404 -23.3318 -23.2646
   -23.2476 -23.0882  -9.2811  -8.8287  -4.8511  -2.3373  -1.9436   1.6714
     2.2405   2.8386

          k = 0.3333 0.5774 0.0000 ( 20133 PWs)   bands (ev):

   -23.5971 -23.5345 -23.5344 -23.4051 -23.3418 -23.3417 -23.3414 -23.2570
   -23.2570 -23.0870  -9.0564  -9.0563  -4.8873  -2.1389  -2.1388   1.6383
     2.6708   2.6709

     the Fermi energy is    -2.1325 ev

!    total energy              =    -326.42007881 Ry
     estimated scf accuracy    <       0.00000055 Ry
     smearing contrib. (-TS)   =      -0.00464913 Ry
     internal energy E=F+TS    =    -326.41542968 Ry

     The total energy is F=E-TS. E is the sum of the following terms:
     one-electron contribution =    -856.42070549 Ry
     hartree contribution      =     435.89086429 Ry
     xc contribution           =     -95.00705379 Ry
     ewald contribution        =     189.12146532 Ry

     convergence has been achieved in   7 iterations

     Writing output data file ../tmp/stanene.save/

     init_run     :      5.76s CPU      6.17s WALL (       1 calls)
     electrons    :    120.52s CPU    126.33s WALL (       1 calls)

     Called by init_run:
     wfcinit      :      4.58s CPU      4.86s WALL (       1 calls)
     potinit      :      0.38s CPU      0.40s WALL (       1 calls)
     hinit0       :      0.40s CPU      0.40s WALL (       1 calls)

     Called by electrons:
     c_bands      :    103.20s CPU    106.64s WALL (       7 calls)
     sum_band     :     13.65s CPU     15.36s WALL (       7 calls)
     v_of_rho     :      1.38s CPU      1.48s WALL (       8 calls)
     newd         :      2.32s CPU      2.99s WALL (       8 calls)
     mix_rho      :      0.23s CPU      0.25s WALL (       7 calls)

     Called by c_bands:
     init_us_2    :      0.87s CPU      0.88s WALL (     915 calls)
     cegterg      :     99.77s CPU    103.21s WALL (     427 calls)

     Called by *egterg:
     cdiaghg      :      1.57s CPU      1.59s WALL (    2363 calls)
     h_psi        :     62.63s CPU     66.18s WALL (    2424 calls)
     s_psi        :      4.66s CPU      4.68s WALL (    2424 calls)
     g_psi        :      0.41s CPU      0.41s WALL (    1936 calls)

     Called by h_psi:
     h_psi:calbec :      7.86s CPU      8.11s WALL (    2424 calls)
     vloc_psi     :     49.85s CPU     53.08s WALL (    2424 calls)
     add_vuspsi   :      4.67s CPU      4.75s WALL (    2424 calls)

     General routines
     calbec       :     10.18s CPU     10.51s WALL (    2851 calls)
     fft          :      1.37s CPU      1.44s WALL (     102 calls)
     ffts         :      0.03s CPU      0.03s WALL (      15 calls)
     fftw         :     52.54s CPU     55.83s WALL (   53876 calls)
     interpolate  :      0.10s CPU      0.11s WALL (       8 calls)

     Parallel routines
     fft_scatt_xy :      4.77s CPU      5.25s WALL (   53993 calls)
     fft_scatt_yz :     28.53s CPU     29.76s WALL (   53993 calls)

     PWSCF        :   2m 6.66s CPU   2m13.33s WALL


   This run was terminated on:  23: 0: 7  23Jan2024            

=------------------------------------------------------------------------------=
   JOB DONE.
=------------------------------------------------------------------------------=
