
     Program PWSCF v.6.7MaX starts on 23Jan2024 at 22:55:35 

     This program is part of the open-source Quantum ESPRESSO suite
     for quantum simulation of materials; please cite
         "P. Giannozzi et al., J. Phys.:Condens. Matter 21 395502 (2009);
         "P. Giannozzi et al., J. Phys.:Condens. Matter 29 465901 (2017);
          URL http://www.quantum-espresso.org", 
     in publications or presentations arising from this work. More details at
     http://www.quantum-espresso.org/quote

     Parallel version (MPI), running on     6 processors

     MPI processes distributed on     1 nodes
     R & G space division:  proc/nbgrp/npool/nimage =       6
     Waiting for input...
     Reading input from standard input

     Current dimensions of program PWSCF are:
     Max number of different atomic species (ntypx) = 10
     Max number of k-points (npk) =  40000
     Max angular momentum in pseudopotentials (lmaxx) =  3

     Subspace diagonalization in iterative solution of the eigenvalue problem:
     one sub-group per band group will be used
     scalapack distributed-memory algorithm (size of sub-group:  2*  2 procs)


     Parallelization info
     --------------------
     sticks:   dense  smooth     PW     G-vecs:    dense   smooth      PW
     Min         431     214     61                75909    26818    4015
     Max         432     215     62                75924    26841    4025
     Sum        2587    1285    367               455489   160939   24117



     bravais-lattice index     =            4
     lattice parameter (alat)  =       8.8506  a.u.
     unit-cell volume          =    2563.9136 (a.u.)^3
     number of atoms/cell      =            2
     number of atomic types    =            1
     number of electrons       =        28.00
     number of Kohn-Sham states=           18
     kinetic-energy cutoff     =      60.0000  Ry
     charge density cutoff     =     480.0000  Ry
     scf convergence threshold =      1.0E-06
     mixing beta               =       0.7000
     number of iterations used =            8  plain     mixing
     Exchange-correlation= SLA  PW   PBE  PBE
                           (   1   4   3   4   0   0   0)

     celldm(1)=   8.850584  celldm(2)=   0.000000  celldm(3)=   4.270286
     celldm(4)=   0.000000  celldm(5)=   0.000000  celldm(6)=   0.000000

     crystal axes: (cart. coord. in units of alat)
               a(1) = (   1.000000   0.000000   0.000000 )  
               a(2) = (  -0.500000   0.866025   0.000000 )  
               a(3) = (   0.000000   0.000000   4.270286 )  

     reciprocal axes: (cart. coord. in units 2 pi/alat)
               b(1) = (  1.000000  0.577350 -0.000000 )  
               b(2) = (  0.000000  1.154701  0.000000 )  
               b(3) = (  0.000000 -0.000000  0.234176 )  


     PseudoPot. # 1 for Sn read from file:
     ../pseudo/Sn_pbe_v1.uspp.F.UPF
     MD5 check sum: 4cf58ce39ec5d5d420df3dd08604eb00
     Pseudo is Ultrasoft + core correction, Zval = 14.0
     Generated by new atomic code, or converted to UPF format
     Using radial grid of  891 points,  6 beta functions with: 
                l(1) =   0
                l(2) =   0
                l(3) =   1
                l(4) =   1
                l(5) =   2
                l(6) =   2
     Q(r) pseudized with  6 coefficients,  rinner =    1.200   1.200   1.200
                                                       1.200   1.200

     atomic species   valence    mass     pseudopotential
        Sn            14.00   118.71000     Sn( 1.00)

      6 Sym. Ops. (no inversion) found



   Cartesian axes

     site n.     atom                  positions (alat units)
         1           Sn  tau(   1) = (   0.0000000   0.5773503   2.1351428  )
         2           Sn  tau(   2) = (   0.5000000   0.2886751   1.9552503  )

     number of k points=    61  Gaussian smearing, width (Ry)=  0.0300
                       cart. coord. in units 2pi/alat
        k(    1) = (   0.0000000   0.0000000   0.0000000), wk =   0.0034722
        k(    2) = (   0.0000000   0.0481125   0.0000000), wk =   0.0208333
        k(    3) = (   0.0000000   0.0962250   0.0000000), wk =   0.0208333
        k(    4) = (   0.0000000   0.1443376   0.0000000), wk =   0.0208333
        k(    5) = (   0.0000000   0.1924501   0.0000000), wk =   0.0208333
        k(    6) = (   0.0000000   0.2405626   0.0000000), wk =   0.0208333
        k(    7) = (   0.0000000   0.2886751   0.0000000), wk =   0.0208333
        k(    8) = (   0.0000000   0.3367877   0.0000000), wk =   0.0208333
        k(    9) = (   0.0000000   0.3849002   0.0000000), wk =   0.0208333
        k(   10) = (   0.0000000   0.4330127   0.0000000), wk =   0.0208333
        k(   11) = (   0.0000000   0.4811252   0.0000000), wk =   0.0208333
        k(   12) = (   0.0000000   0.5292377   0.0000000), wk =   0.0208333
        k(   13) = (   0.0000000  -0.5773503   0.0000000), wk =   0.0104167
        k(   14) = (   0.0416667   0.0721688   0.0000000), wk =   0.0208333
        k(   15) = (   0.0416667   0.1202813   0.0000000), wk =   0.0416667
        k(   16) = (   0.0416667   0.1683938   0.0000000), wk =   0.0416667
        k(   17) = (   0.0416667   0.2165064   0.0000000), wk =   0.0416667
        k(   18) = (   0.0416667   0.2646189   0.0000000), wk =   0.0416667
        k(   19) = (   0.0416667   0.3127314   0.0000000), wk =   0.0416667
        k(   20) = (   0.0416667   0.3608439   0.0000000), wk =   0.0416667
        k(   21) = (   0.0416667   0.4089564   0.0000000), wk =   0.0416667
        k(   22) = (   0.0416667   0.4570690   0.0000000), wk =   0.0416667
        k(   23) = (   0.0416667   0.5051815   0.0000000), wk =   0.0416667
        k(   24) = (   0.0416667   0.5532940   0.0000000), wk =   0.0416667
        k(   25) = (   0.0833333   0.1443376   0.0000000), wk =   0.0208333
        k(   26) = (   0.0833333   0.1924501   0.0000000), wk =   0.0416667
        k(   27) = (   0.0833333   0.2405626   0.0000000), wk =   0.0416667
        k(   28) = (   0.0833333   0.2886751   0.0000000), wk =   0.0416667
        k(   29) = (   0.0833333   0.3367877   0.0000000), wk =   0.0416667
        k(   30) = (   0.0833333   0.3849002   0.0000000), wk =   0.0416667
        k(   31) = (   0.0833333   0.4330127   0.0000000), wk =   0.0416667
        k(   32) = (   0.0833333   0.4811252   0.0000000), wk =   0.0416667
        k(   33) = (   0.0833333   0.5292377   0.0000000), wk =   0.0416667
        k(   34) = (   0.0833333   0.5773503   0.0000000), wk =   0.0208333
        k(   35) = (   0.1250000   0.2165064   0.0000000), wk =   0.0208333
        k(   36) = (   0.1250000   0.2646189   0.0000000), wk =   0.0416667
        k(   37) = (   0.1250000   0.3127314   0.0000000), wk =   0.0416667
        k(   38) = (   0.1250000   0.3608439   0.0000000), wk =   0.0416667
        k(   39) = (   0.1250000   0.4089564   0.0000000), wk =   0.0416667
        k(   40) = (   0.1250000   0.4570690   0.0000000), wk =   0.0416667
        k(   41) = (   0.1250000   0.5051815   0.0000000), wk =   0.0416667
        k(   42) = (   0.1250000   0.5532940   0.0000000), wk =   0.0416667
        k(   43) = (   0.1666667   0.2886751   0.0000000), wk =   0.0208333
        k(   44) = (   0.1666667   0.3367877   0.0000000), wk =   0.0416667
        k(   45) = (   0.1666667   0.3849002   0.0000000), wk =   0.0416667
        k(   46) = (   0.1666667   0.4330127   0.0000000), wk =   0.0416667
        k(   47) = (   0.1666667   0.4811252   0.0000000), wk =   0.0416667
        k(   48) = (   0.1666667   0.5292377   0.0000000), wk =   0.0416667
        k(   49) = (   0.1666667   0.5773503   0.0000000), wk =   0.0208333
        k(   50) = (   0.2083333   0.3608439   0.0000000), wk =   0.0208333
        k(   51) = (   0.2083333   0.4089564   0.0000000), wk =   0.0416667
        k(   52) = (   0.2083333   0.4570690   0.0000000), wk =   0.0416667
        k(   53) = (   0.2083333   0.5051815   0.0000000), wk =   0.0416667
        k(   54) = (   0.2083333   0.5532940   0.0000000), wk =   0.0416667
        k(   55) = (   0.2500000   0.4330127   0.0000000), wk =   0.0208333
        k(   56) = (   0.2500000   0.4811252   0.0000000), wk =   0.0416667
        k(   57) = (   0.2500000   0.5292377   0.0000000), wk =   0.0416667
        k(   58) = (   0.2500000   0.5773503   0.0000000), wk =   0.0208333
        k(   59) = (   0.2916667   0.5051815   0.0000000), wk =   0.0208333
        k(   60) = (   0.2916667   0.5532940   0.0000000), wk =   0.0416667
        k(   61) = (   0.3333333   0.5773503   0.0000000), wk =   0.0069444

     Dense  grid:   455489 G-vectors     FFT dimensions: (  64,  64, 270)

     Smooth grid:   160939 G-vectors     FFT dimensions: (  45,  45, 192)

     Estimated max dynamical RAM per process >     322.30 MB

     Estimated total dynamical RAM >       1.89 GB

     Initial potential from superposition of free atoms

     starting charge   25.99991, renormalised to   28.00000

     negative rho (up, down):  5.949E-04 0.000E+00
     Starting wfcs are   18 randomized atomic wfcs

     total cpu time spent up to now is        6.7 secs

     Self-consistent Calculation

     iteration #  1     ecut=    60.00 Ry     beta= 0.70
     Davidson diagonalization with overlap
     ethr =  1.00E-02,  avg # of iterations =  8.8

     negative rho (up, down):  5.305E-07 0.000E+00

     total cpu time spent up to now is       29.5 secs

     total energy              =    -325.44837984 Ry
     estimated scf accuracy    <       2.48328978 Ry

     iteration #  2     ecut=    60.00 Ry     beta= 0.70
     Davidson diagonalization with overlap
     ethr =  8.87E-03,  avg # of iterations =  2.1

     negative rho (up, down):  6.946E-06 0.000E+00

     total cpu time spent up to now is       47.8 secs

     total energy              =    -326.35731973 Ry
     estimated scf accuracy    <       0.39560241 Ry

     iteration #  3     ecut=    60.00 Ry     beta= 0.70
     Davidson diagonalization with overlap
     ethr =  1.41E-03,  avg # of iterations =  2.1

     negative rho (up, down):  3.515E-05 0.000E+00

     total cpu time spent up to now is       67.0 secs

     total energy              =    -326.41742004 Ry
     estimated scf accuracy    <       0.00656505 Ry

     iteration #  4     ecut=    60.00 Ry     beta= 0.70
     Davidson diagonalization with overlap
     c_bands:  1 eigenvalues not converged
     ethr =  2.34E-05,  avg # of iterations =  8.5

     negative rho (up, down):  7.678E-05 0.000E+00

     total cpu time spent up to now is       89.8 secs

     total energy              =    -326.41948260 Ry
     estimated scf accuracy    <       0.00029235 Ry

     iteration #  5     ecut=    60.00 Ry     beta= 0.70
     Davidson diagonalization with overlap
     ethr =  1.04E-06,  avg # of iterations =  5.6

     negative rho (up, down):  8.091E-05 0.000E+00

     total cpu time spent up to now is      107.0 secs

     total energy              =    -326.41950501 Ry
     estimated scf accuracy    <       0.00003214 Ry

     iteration #  6     ecut=    60.00 Ry     beta= 0.70
     Davidson diagonalization with overlap
     ethr =  1.15E-07,  avg # of iterations =  2.3

     negative rho (up, down):  8.435E-05 0.000E+00

     total cpu time spent up to now is      122.3 secs

     total energy              =    -326.41951196 Ry
     estimated scf accuracy    <       0.00002223 Ry

     iteration #  7     ecut=    60.00 Ry     beta= 0.70
     Davidson diagonalization with overlap
     ethr =  7.94E-08,  avg # of iterations =  2.0

     negative rho (up, down):  8.560E-05 0.000E+00

     total cpu time spent up to now is      137.2 secs

     End of self-consistent calculation

          k = 0.0000 0.0000 0.0000 ( 20025 PWs)   bands (ev):

   -23.5401 -23.5401 -23.4609 -23.4609 -23.4440 -23.3739 -23.2346 -23.2346
   -23.1796 -23.1796 -11.3860  -5.2817  -2.4173  -2.4173  -1.9553  -0.0689
     1.0790   1.0790

          k = 0.0000 0.0481 0.0000 ( 20035 PWs)   bands (ev):

   -23.5410 -23.5409 -23.4622 -23.4596 -23.4420 -23.3727 -23.2371 -23.2369
   -23.1782 -23.1773 -11.3713  -5.3049  -2.7055  -2.4498  -1.6486  -0.0678
     1.0491   1.1348

          k = 0.0000 0.0962 0.0000 ( 20005 PWs)   bands (ev):

   -23.5434 -23.5430 -23.4655 -23.4562 -23.4372 -23.3691 -23.2436 -23.2430
   -23.1750 -23.1715 -11.3273  -5.3831  -3.0914  -2.5403  -1.2130  -0.0680
     0.9943   1.2942

          k = 0.0000 0.1443 0.0000 ( 20065 PWs)   bands (ev):

   -23.5465 -23.5461 -23.4698 -23.4512 -23.4311 -23.3632 -23.2521 -23.2513
   -23.1712 -23.1640 -11.2541  -5.5368  -3.4003  -2.6720  -0.8492  -0.0782
     0.9992   1.5372

          k = 0.0000 0.1925 0.0000 ( 20113 PWs)   bands (ev):

   -23.5497 -23.5495 -23.4750 -23.4452 -23.4251 -23.3551 -23.2614 -23.2605
   -23.1680 -23.1559 -11.1525  -5.7819  -3.5944  -2.8261  -0.6483  -0.1018
     1.1450   2.1786

          k = 0.0000 0.2406 0.0000 ( 20071 PWs)   bands (ev):

   -23.5529 -23.5523 -23.4807 -23.4387 -23.4201 -23.3451 -23.2708 -23.2695
   -23.1658 -23.1480 -11.0231  -6.1090  -3.6739  -2.9865  -0.6348  -0.1320
     1.4061   2.2878

          k = 0.0000 0.2887 0.0000 ( 20087 PWs)   bands (ev):

   -23.5560 -23.5538 -23.4869 -23.4324 -23.4164 -23.3339 -23.2798 -23.2775
   -23.1650 -23.1407 -10.8674  -6.4882  -3.6637  -3.1415  -0.7390  -0.1816
     1.6456   2.4644

          k = 0.0000 0.3368 0.0000 ( 20109 PWs)   bands (ev):

   -23.5587 -23.5542 -23.4934 -23.4265 -23.4143 -23.3224 -23.2879 -23.2836
   -23.1656 -23.1341 -10.6879  -6.8886  -3.5921  -3.2826  -0.8918  -0.2634
     1.8018   2.6674

          k = 0.0000 0.3849 0.0000 ( 20145 PWs)   bands (ev):

   -23.5608 -23.5532 -23.5001 -23.4214 -23.4136 -23.3124 -23.2949 -23.2868
   -23.1675 -23.1286 -10.4889  -7.2859  -3.4820  -3.4040  -1.0610  -0.3692
     1.9342   2.8827

          k = 0.0000 0.4330 0.0000 ( 20161 PWs)   bands (ev):

   -23.5624 -23.5511 -23.5067 -23.4173 -23.4137 -23.3068 -23.3005 -23.2850
   -23.1703 -23.1241 -10.2784  -7.6594  -3.5019  -3.3531  -1.2308  -0.4780
     2.0828   3.1009

          k = 0.0000 0.4811 0.0000 ( 20157 PWs)   bands (ev):

   -23.5636 -23.5483 -23.5129 -23.4143 -23.4142 -23.3056 -23.3046 -23.2793
   -23.1734 -23.1208 -10.0732  -7.9853  -3.5735  -3.2268  -1.3850  -0.5689
     2.2474   3.2791

          k = 0.0000 0.5292 0.0000 ( 20142 PWs)   bands (ev):

   -23.5642 -23.5455 -23.5177 -23.4148 -23.4125 -23.3071 -23.3058 -23.2742
   -23.1758 -23.1189  -9.9078  -8.2244  -3.6171  -3.1302  -1.4986  -0.6278
     2.3972   3.3355

          k = 0.0000-0.5774 0.0000 ( 20152 PWs)   bands (ev):

   -23.5644 -23.5442 -23.5197 -23.4150 -23.4119 -23.3079 -23.3060 -23.2722
   -23.1767 -23.1182  -9.8403  -8.3168  -3.6317  -3.0931  -1.5415  -0.6481
     2.4644   3.3797

          k = 0.0417 0.0722 0.0000 ( 20017 PWs)   bands (ev):

   -23.5426 -23.5424 -23.4644 -23.4575 -23.4386 -23.3703 -23.2417 -23.2410
   -23.1761 -23.1732 -11.3419  -5.3557  -2.9910  -2.5156  -1.3230  -0.0674
     0.9972   1.2510

          k = 0.0417 0.1203 0.0000 ( 20039 PWs)   bands (ev):

   -23.5453 -23.5450 -23.4679 -23.4536 -23.4330 -23.3656 -23.2492 -23.2480
   -23.1730 -23.1663 -11.2833  -5.4720  -3.2977  -2.6366  -0.9417  -0.0735
     0.9441   1.4728

          k = 0.0417 0.1684 0.0000 ( 20081 PWs)   bands (ev):

   -23.5488 -23.5479 -23.4726 -23.4484 -23.4267 -23.3587 -23.2580 -23.2565
   -23.1700 -23.1583 -11.1959  -5.6730  -3.5249  -2.7906  -0.6462  -0.0950
     0.9834   1.7679

          k = 0.0417 0.2165 0.0000 ( 20075 PWs)   bands (ev):

   -23.5525 -23.5504 -23.4780 -23.4425 -23.4206 -23.3498 -23.2672 -23.2655
   -23.1677 -23.1502 -11.0803  -5.9615  -3.6452  -2.9575  -0.5324  -0.1216
     1.1746   2.0846

          k = 0.0417 0.2646 0.0000 ( 20107 PWs)   bands (ev):

   -23.5559 -23.5523 -23.4840 -23.4364 -23.4157 -23.3395 -23.2761 -23.2740
   -23.1667 -23.1423 -10.9377  -6.3159  -3.6701  -3.1220  -0.5947  -0.1454
     1.4549   2.2856

          k = 0.0417 0.3127 0.0000 ( 20105 PWs)   bands (ev):

   -23.5590 -23.5531 -23.4904 -23.4306 -23.4122 -23.3283 -23.2844 -23.2811
   -23.1671 -23.1352 -10.7698  -6.7053  -3.6276  -3.2709  -0.7432  -0.1934
     1.6950   2.4914

          k = 0.0417 0.3608 0.0000 ( 20127 PWs)   bands (ev):

   -23.5615 -23.5527 -23.4970 -23.4254 -23.4103 -23.3177 -23.2918 -23.2858
   -23.1688 -23.1289 -10.5798  -7.1032  -3.5588  -3.3795  -0.9231  -0.2711
     1.8624   2.7181

          k = 0.0417 0.4090 0.0000 ( 20135 PWs)   bands (ev):

   -23.5634 -23.5511 -23.5037 -23.4210 -23.4096 -23.3101 -23.2979 -23.2864
   -23.1716 -23.1238 -10.3736  -7.4883  -3.5741  -3.3524  -1.1118  -0.3632
     2.0124   2.9026

          k = 0.0417 0.4571 0.0000 ( 20146 PWs)   bands (ev):

   -23.5648 -23.5487 -23.5102 -23.4175 -23.4098 -23.3073 -23.3025 -23.2821
   -23.1749 -23.1198 -10.1625  -7.8397  -3.6450  -3.2341  -1.2932  -0.4496
     2.1716   3.0279

          k = 0.0417 0.5052 0.0000 ( 20148 PWs)   bands (ev):

   -23.5657 -23.5457 -23.5157 -23.4150 -23.4104 -23.3075 -23.3053 -23.2763
   -23.1780 -23.1171  -9.9707  -8.1277  -3.7000  -3.1182  -1.4450  -0.5145
     2.3269   3.1145

          k = 0.0417 0.5533 0.0000 ( 20150 PWs)   bands (ev):

   -23.5661 -23.5435 -23.5193 -23.4132 -23.4113 -23.3083 -23.3064 -23.2725
   -23.1799 -23.1157  -9.8457  -8.3015  -3.7285  -3.0456  -1.5353  -0.5488
     2.4323   3.2133

          k = 0.0833 0.1443 0.0000 ( 20061 PWs)   bands (ev):

   -23.5484 -23.5473 -23.4715 -23.4500 -23.4269 -23.3600 -23.2569 -23.2549
   -23.1711 -23.1588 -11.2104  -5.6368  -3.4898  -2.7947  -0.6186  -0.0955
     0.8868   1.7698

          k = 0.0833 0.1925 0.0000 ( 20087 PWs)   bands (ev):

   -23.5523 -23.5494 -23.4763 -23.4455 -23.4199 -23.3526 -23.2654 -23.2631
   -23.1698 -23.1505 -11.1090  -5.8847  -3.6109  -2.9817  -0.3627  -0.1378
     0.9233   2.1142

          k = 0.0833 0.2406 0.0000 ( 20121 PWs)   bands (ev):

   -23.5563 -23.5509 -23.4819 -23.4403 -23.4133 -23.3438 -23.2739 -23.2714
   -23.1695 -23.1421 -10.9800  -6.2036  -3.6514  -3.1712  -0.3574  -0.1065
     1.1201   2.2402

          k = 0.0833 0.2887 0.0000 ( 20106 PWs)   bands (ev):

   -23.5601 -23.5516 -23.4881 -23.4350 -23.4079 -23.3340 -23.2819 -23.2789
   -23.1705 -23.1341 -10.8247  -6.5684  -3.6312  -3.3403  -0.5188  -0.0699
     1.4237   2.3243

          k = 0.0833 0.3368 0.0000 ( 20114 PWs)   bands (ev):

   -23.5633 -23.5513 -23.4946 -23.4297 -23.4041 -23.3242 -23.2892 -23.2844
   -23.1727 -23.1269 -10.6454  -6.9535  -3.6202  -3.4283  -0.7235  -0.0859
     1.7153   2.4729

          k = 0.0833 0.3849 0.0000 ( 20126 PWs)   bands (ev):

   -23.5659 -23.5500 -23.5013 -23.4248 -23.4022 -23.3161 -23.2955 -23.2865
   -23.1760 -23.1207 -10.4463  -7.3376  -3.7088  -3.3558  -0.9439  -0.1324
     1.9366   2.6317

          k = 0.0833 0.4330 0.0000 ( 20149 PWs)   bands (ev):

   -23.5679 -23.5478 -23.5078 -23.4203 -23.4019 -23.3117 -23.3006 -23.2839
   -23.1802 -23.1157 -10.2352  -7.7015  -3.8091  -3.2233  -1.1637  -0.1893
     2.1136   2.7313

          k = 0.0833 0.4811 0.0000 ( 20151 PWs)   bands (ev):

   -23.5693 -23.5450 -23.5137 -23.4162 -23.4031 -23.3105 -23.3044 -23.2783
   -23.1844 -23.1121 -10.0283  -8.0218  -3.8862  -3.0840  -1.3625  -0.2404
     2.2598   2.8183

          k = 0.0833 0.5292 0.0000 ( 20157 PWs)   bands (ev):

   -23.5700 -23.5422 -23.5183 -23.4127 -23.4052 -23.3101 -23.3069 -23.2733
   -23.1876 -23.1098  -9.8601  -8.2596  -3.9337  -2.9722  -1.5099  -0.2750
     2.3524   2.9523

          k = 0.0833 0.5774 0.0000 ( 20154 PWs)   bands (ev):

   -23.5703 -23.5410 -23.5202 -23.4105 -23.4069 -23.3099 -23.3079 -23.2713
   -23.1889 -23.1091  -9.7907  -8.3524  -3.9497  -2.9279  -1.5662  -0.2872
     2.3813   3.0733

          k = 0.1250 0.2165 0.0000 ( 20099 PWs)   bands (ev):

   -23.5565 -23.5505 -23.4810 -23.4419 -23.4122 -23.3454 -23.2732 -23.2704
   -23.1707 -23.1418 -10.9941  -6.1644  -3.6367  -3.2038  -0.2366  -0.0628
     0.9256   2.2508

          k = 0.1250 0.2646 0.0000 ( 20119 PWs)   bands (ev):

   -23.5607 -23.5508 -23.4868 -23.4375 -23.4047 -23.3376 -23.2807 -23.2775
   -23.1728 -23.1331 -10.8522  -6.4943  -3.6089  -3.4197  -0.3811   0.1323
     1.0851   2.3012

          k = 0.1250 0.3127 0.0000 ( 20122 PWs)   bands (ev):

   -23.5647 -23.5503 -23.4930 -23.4326 -23.3984 -23.3297 -23.2876 -23.2832
   -23.1761 -23.1249 -10.6850  -6.8535  -3.6573  -3.4918  -0.5759   0.2047
     1.3956   2.3679

          k = 0.1250 0.3608 0.0000 ( 20112 PWs)   bands (ev):

   -23.5682 -23.5490 -23.4995 -23.4275 -23.3942 -23.3229 -23.2938 -23.2861
   -23.1806 -23.1176 -10.4954  -7.2226  -3.8251  -3.3791  -0.8010   0.2085
     1.7435   2.4331

          k = 0.1250 0.4090 0.0000 ( 20146 PWs)   bands (ev):

   -23.5710 -23.5469 -23.5059 -23.4224 -23.3923 -23.3183 -23.2991 -23.2847
   -23.1859 -23.1114 -10.2888  -7.5846  -3.9693  -3.2319  -1.0381   0.1846
     2.0357   2.4572

          k = 0.1250 0.4571 0.0000 ( 20145 PWs)   bands (ev):

   -23.5731 -23.5441 -23.5120 -23.4175 -23.3927 -23.3159 -23.3035 -23.2800
   -23.1915 -23.1066 -10.0756  -7.9205  -4.0796  -3.0726  -1.2677   0.1533
     2.2135   2.5186

          k = 0.1250 0.5052 0.0000 ( 20141 PWs)   bands (ev):

   -23.5745 -23.5412 -23.5171 -23.4129 -23.3948 -23.3143 -23.3071 -23.2744
   -23.1966 -23.1034  -9.8788  -8.2017  -4.1539  -2.9254  -1.4635   0.1263
     2.2493   2.7086

          k = 0.1250 0.5533 0.0000 ( 20145 PWs)   bands (ev):

   -23.5752 -23.5390 -23.5204 -23.4095 -23.3972 -23.3128 -23.3098 -23.2707
   -23.1997 -23.1017  -9.7477  -8.3759  -4.1912  -2.8299  -1.5840   0.1110
     2.2443   2.9260

          k = 0.1667 0.2887 0.0000 ( 20113 PWs)   bands (ev):

   -23.5652 -23.5500 -23.4925 -23.4337 -23.3961 -23.3319 -23.2871 -23.2828
   -23.1774 -23.1241 -10.6983  -6.8180  -3.6696  -3.5191  -0.5284   0.4215
     1.1530   2.3729

          k = 0.1667 0.3368 0.0000 ( 20110 PWs)   bands (ev):

   -23.5695 -23.5485 -23.4986 -23.4290 -23.3886 -23.3276 -23.2930 -23.2857
   -23.1832 -23.1158 -10.5202  -7.1595  -3.8928  -3.3964  -0.7264   0.5795
     1.4076   2.4375

          k = 0.1667 0.3849 0.0000 ( 20115 PWs)   bands (ev):

   -23.5732 -23.5463 -23.5048 -23.4238 -23.3835 -23.3250 -23.2982 -23.2850
   -23.1900 -23.1084 -10.3215  -7.5049  -4.0826  -3.2449  -0.9524   0.6205
     1.7831   2.3630

          k = 0.1667 0.4330 0.0000 ( 20139 PWs)   bands (ev):

   -23.5762 -23.5436 -23.5107 -23.4184 -23.3815 -23.3232 -23.3029 -23.2810
   -23.1972 -23.1024 -10.1090  -7.8394  -4.2329  -3.0756  -1.1875   0.6199
     2.1531   2.2524

          k = 0.1667 0.4811 0.0000 ( 20145 PWs)   bands (ev):

   -23.5784 -23.5406 -23.5160 -23.4131 -23.3823 -23.3210 -23.3072 -23.2755
   -23.2043 -23.0979  -9.8968  -8.1427  -4.3412  -2.9046  -1.4097   0.6087
     2.1431   2.4999

          k = 0.1667 0.5292 0.0000 ( 20147 PWs)   bands (ev):

   -23.5798 -23.5378 -23.5201 -23.4087 -23.3846 -23.3182 -23.3110 -23.2705
   -23.2098 -23.0952  -9.7184  -8.3773  -4.4064  -2.7623  -1.5843   0.5985
     2.0816   2.7938

          k = 0.1667 0.5774 0.0000 ( 20135 PWs)   bands (ev):

   -23.5802 -23.5366 -23.5219 -23.4068 -23.3859 -23.3155 -23.3139 -23.2685
   -23.2120 -23.0942  -9.6420  -8.4728  -4.4282  -2.7026  -1.6550   0.5946
     2.0604   2.9601

          k = 0.2083 0.3608 0.0000 ( 20119 PWs)   bands (ev):

   -23.5739 -23.5461 -23.5044 -23.4243 -23.3796 -23.3282 -23.2979 -23.2850
   -23.1914 -23.1074 -10.3325  -7.4765  -4.1234  -3.2505  -0.9224   0.9123
     1.5288   2.4057

          k = 0.2083 0.4090 0.0000 ( 20133 PWs)   bands (ev):

   -23.5779 -23.5433 -23.5100 -23.4189 -23.3729 -23.3296 -23.3026 -23.2815
   -23.2003 -23.1001 -10.1262  -7.7939  -4.3172  -3.0803  -1.1420   1.0693
     1.8461   2.2337

          k = 0.2083 0.4571 0.0000 ( 20137 PWs)   bands (ev):

   -23.5810 -23.5403 -23.5152 -23.4133 -23.3700 -23.3293 -23.3072 -23.2762
   -23.2093 -23.0944  -9.9094  -8.0987  -4.4660  -2.8978  -1.3673   1.1154
     2.0593   2.2728

          k = 0.2083 0.5052 0.0000 ( 20163 PWs)   bands (ev):

   -23.5831 -23.5373 -23.5197 -23.4082 -23.3708 -23.3262 -23.3118 -23.2706
   -23.2175 -23.0904  -9.7016  -8.3674  -4.5662  -2.7227  -1.5736   1.1307
     1.9526   2.6450

          k = 0.2083 0.5533 0.0000 ( 20157 PWs)   bands (ev):

   -23.5843 -23.5350 -23.5227 -23.4048 -23.3726 -23.3216 -23.3165 -23.2666
   -23.2227 -23.0884  -9.5532  -8.5469  -4.6166  -2.5995  -1.7132   1.1365
     1.8934   2.9345

          k = 0.2500 0.4330 0.0000 ( 20149 PWs)   bands (ev):

   -23.5819 -23.5402 -23.5150 -23.4134 -23.3637 -23.3342 -23.3072 -23.2765
   -23.2111 -23.0932  -9.9140  -8.0823  -4.5098  -2.8965  -1.3512   1.4349
     2.0140   2.0771

          k = 0.2500 0.4811 0.0000 ( 20153 PWs)   bands (ev):

   -23.5849 -23.5371 -23.5194 -23.4079 -23.3586 -23.3352 -23.3122 -23.2708
   -23.2215 -23.0879  -9.6942  -8.3584  -4.6513  -2.7050  -1.5638   1.5956
     1.9305   2.3836

          k = 0.2500 0.5292 0.0000 ( 20133 PWs)   bands (ev):

   -23.5869 -23.5343 -23.5230 -23.4037 -23.3587 -23.3308 -23.3178 -23.2652
   -23.2301 -23.0847  -9.4930  -8.5942  -4.7375  -2.5309  -1.7517   1.6622
     1.8168   2.7886

          k = 0.2500 0.5774 0.0000 ( 20123 PWs)   bands (ev):

   -23.5875 -23.5328 -23.5247 -23.4020 -23.3595 -23.3243 -23.3241 -23.2626
   -23.2339 -23.0836  -9.3946  -8.7043  -4.7664  -2.4471  -1.8403   1.7066
     1.7507   3.0036

          k = 0.2917 0.5052 0.0000 ( 20137 PWs)   bands (ev):

   -23.5878 -23.5341 -23.5231 -23.4033 -23.3488 -23.3389 -23.3182 -23.2647
   -23.2328 -23.0835  -9.4715  -8.6106  -4.7791  -2.5066  -1.7653   1.7178
     2.1108   2.5481

          k = 0.2917 0.5533 0.0000 ( 20132 PWs)   bands (ev):

   -23.5893 -23.5315 -23.5260 -23.4004 -23.3466 -23.3340 -23.3256 -23.2589
   -23.2415 -23.0812  -9.2746  -8.8222  -4.8442  -2.3336  -1.9400   1.6749
     2.2468   2.8434

          k = 0.3333 0.5774 0.0000 ( 20133 PWs)   bands (ev):

   -23.5901 -23.5288 -23.5287 -23.3993 -23.3358 -23.3352 -23.3348 -23.2512
   -23.2511 -23.0800  -9.0500  -9.0499  -4.8805  -2.1352  -2.1351   1.6418
     2.6767   2.6768

     the Fermi energy is    -2.1289 ev

!    total energy              =    -326.41951521 Ry
     estimated scf accuracy    <       0.00000059 Ry
     smearing contrib. (-TS)   =      -0.00280194 Ry
     internal energy E=F+TS    =    -326.41671327 Ry

     The total energy is F=E-TS. E is the sum of the following terms:
     one-electron contribution =    -856.43498918 Ry
     hartree contribution      =     435.90424165 Ry
     xc contribution           =     -95.00743106 Ry
     ewald contribution        =     189.12146532 Ry

     convergence has been achieved in   7 iterations

     Writing output data file ../tmp/stanene.save/

     init_run     :      6.39s CPU      6.59s WALL (       1 calls)
     electrons    :    125.89s CPU    130.50s WALL (       1 calls)

     Called by init_run:
     wfcinit      :      5.13s CPU      5.25s WALL (       1 calls)
     potinit      :      0.37s CPU      0.37s WALL (       1 calls)
     hinit0       :      0.43s CPU      0.43s WALL (       1 calls)

     Called by electrons:
     c_bands      :    106.10s CPU    108.84s WALL (       7 calls)
     sum_band     :     15.12s CPU     16.27s WALL (       7 calls)
     v_of_rho     :      1.91s CPU      1.98s WALL (       8 calls)
     newd         :      2.79s CPU      3.44s WALL (       8 calls)
     mix_rho      :      0.26s CPU      0.30s WALL (       7 calls)

     Called by c_bands:
     init_us_2    :      0.86s CPU      0.87s WALL (     915 calls)
     cegterg      :    102.69s CPU    105.41s WALL (     427 calls)

     Called by *egterg:
     cdiaghg      :      1.59s CPU      1.60s WALL (    2340 calls)
     h_psi        :     64.92s CPU     67.59s WALL (    2401 calls)
     s_psi        :      4.53s CPU      4.55s WALL (    2401 calls)
     g_psi        :      0.42s CPU      0.42s WALL (    1913 calls)

     Called by h_psi:
     h_psi:calbec :      8.37s CPU      8.61s WALL (    2401 calls)
     vloc_psi     :     51.64s CPU     54.01s WALL (    2401 calls)
     add_vuspsi   :      4.67s CPU      4.73s WALL (    2401 calls)

     General routines
     calbec       :     10.87s CPU     11.19s WALL (    2828 calls)
     fft          :      1.87s CPU      1.91s WALL (     102 calls)
     ffts         :      0.03s CPU      0.03s WALL (      15 calls)
     fftw         :     55.22s CPU     57.70s WALL (   53788 calls)
     interpolate  :      0.11s CPU      0.12s WALL (       8 calls)

     Parallel routines
     fft_scatt_xy :      4.82s CPU      5.13s WALL (   53905 calls)
     fft_scatt_yz :     31.47s CPU     32.55s WALL (   53905 calls)

     PWSCF        :   2m12.56s CPU   2m17.64s WALL


   This run was terminated on:  22:57:53  23Jan2024            

=------------------------------------------------------------------------------=
   JOB DONE.
=------------------------------------------------------------------------------=
