
     Program PWSCF v.6.7MaX starts on 23Jan2024 at 23:11: 6 

     This program is part of the open-source Quantum ESPRESSO suite
     for quantum simulation of materials; please cite
         "P. Giannozzi et al., J. Phys.:Condens. Matter 21 395502 (2009);
         "P. Giannozzi et al., J. Phys.:Condens. Matter 29 465901 (2017);
          URL http://www.quantum-espresso.org", 
     in publications or presentations arising from this work. More details at
     http://www.quantum-espresso.org/quote

     Parallel version (MPI), running on     6 processors

     MPI processes distributed on     1 nodes
     R & G space division:  proc/nbgrp/npool/nimage =       6
     Waiting for input...
     Reading input from standard input

     Current dimensions of program PWSCF are:
     Max number of different atomic species (ntypx) = 10
     Max number of k-points (npk) =  40000
     Max angular momentum in pseudopotentials (lmaxx) =  3

     Subspace diagonalization in iterative solution of the eigenvalue problem:
     one sub-group per band group will be used
     scalapack distributed-memory algorithm (size of sub-group:  2*  2 procs)


     Parallelization info
     --------------------
     sticks:   dense  smooth     PW     G-vecs:    dense   smooth      PW
     Min         431     214     61                75909    26818    4015
     Max         432     215     62                75924    26841    4025
     Sum        2587    1285    367               455489   160939   24117



     bravais-lattice index     =            4
     lattice parameter (alat)  =       8.8506  a.u.
     unit-cell volume          =    2563.9136 (a.u.)^3
     number of atoms/cell      =            2
     number of atomic types    =            1
     number of electrons       =        28.00
     number of Kohn-Sham states=           18
     kinetic-energy cutoff     =      60.0000  Ry
     charge density cutoff     =     480.0000  Ry
     scf convergence threshold =      1.0E-06
     mixing beta               =       0.7000
     number of iterations used =            8  plain     mixing
     Exchange-correlation= SLA  PW   PBE  PBE
                           (   1   4   3   4   0   0   0)

     celldm(1)=   8.850584  celldm(2)=   0.000000  celldm(3)=   4.270286
     celldm(4)=   0.000000  celldm(5)=   0.000000  celldm(6)=   0.000000

     crystal axes: (cart. coord. in units of alat)
               a(1) = (   1.000000   0.000000   0.000000 )  
               a(2) = (  -0.500000   0.866025   0.000000 )  
               a(3) = (   0.000000   0.000000   4.270286 )  

     reciprocal axes: (cart. coord. in units 2 pi/alat)
               b(1) = (  1.000000  0.577350 -0.000000 )  
               b(2) = (  0.000000  1.154701  0.000000 )  
               b(3) = (  0.000000 -0.000000  0.234176 )  


     PseudoPot. # 1 for Sn read from file:
     ../pseudo/Sn_pbe_v1.uspp.F.UPF
     MD5 check sum: 4cf58ce39ec5d5d420df3dd08604eb00
     Pseudo is Ultrasoft + core correction, Zval = 14.0
     Generated by new atomic code, or converted to UPF format
     Using radial grid of  891 points,  6 beta functions with: 
                l(1) =   0
                l(2) =   0
                l(3) =   1
                l(4) =   1
                l(5) =   2
                l(6) =   2
     Q(r) pseudized with  6 coefficients,  rinner =    1.200   1.200   1.200
                                                       1.200   1.200

     atomic species   valence    mass     pseudopotential
        Sn            14.00   118.71000     Sn( 1.00)

      6 Sym. Ops. (no inversion) found



   Cartesian axes

     site n.     atom                  positions (alat units)
         1           Sn  tau(   1) = (   0.0000000   0.5773503   2.1351428  )
         2           Sn  tau(   2) = (   0.5000000   0.2886751   1.9552503  )

     number of k points=    61  Methfessel-Paxton smearing, width (Ry)=  0.0250
                       cart. coord. in units 2pi/alat
        k(    1) = (   0.0000000   0.0000000   0.0000000), wk =   0.0034722
        k(    2) = (   0.0000000   0.0481125   0.0000000), wk =   0.0208333
        k(    3) = (   0.0000000   0.0962250   0.0000000), wk =   0.0208333
        k(    4) = (   0.0000000   0.1443376   0.0000000), wk =   0.0208333
        k(    5) = (   0.0000000   0.1924501   0.0000000), wk =   0.0208333
        k(    6) = (   0.0000000   0.2405626   0.0000000), wk =   0.0208333
        k(    7) = (   0.0000000   0.2886751   0.0000000), wk =   0.0208333
        k(    8) = (   0.0000000   0.3367877   0.0000000), wk =   0.0208333
        k(    9) = (   0.0000000   0.3849002   0.0000000), wk =   0.0208333
        k(   10) = (   0.0000000   0.4330127   0.0000000), wk =   0.0208333
        k(   11) = (   0.0000000   0.4811252   0.0000000), wk =   0.0208333
        k(   12) = (   0.0000000   0.5292377   0.0000000), wk =   0.0208333
        k(   13) = (   0.0000000  -0.5773503   0.0000000), wk =   0.0104167
        k(   14) = (   0.0416667   0.0721688   0.0000000), wk =   0.0208333
        k(   15) = (   0.0416667   0.1202813   0.0000000), wk =   0.0416667
        k(   16) = (   0.0416667   0.1683938   0.0000000), wk =   0.0416667
        k(   17) = (   0.0416667   0.2165064   0.0000000), wk =   0.0416667
        k(   18) = (   0.0416667   0.2646189   0.0000000), wk =   0.0416667
        k(   19) = (   0.0416667   0.3127314   0.0000000), wk =   0.0416667
        k(   20) = (   0.0416667   0.3608439   0.0000000), wk =   0.0416667
        k(   21) = (   0.0416667   0.4089564   0.0000000), wk =   0.0416667
        k(   22) = (   0.0416667   0.4570690   0.0000000), wk =   0.0416667
        k(   23) = (   0.0416667   0.5051815   0.0000000), wk =   0.0416667
        k(   24) = (   0.0416667   0.5532940   0.0000000), wk =   0.0416667
        k(   25) = (   0.0833333   0.1443376   0.0000000), wk =   0.0208333
        k(   26) = (   0.0833333   0.1924501   0.0000000), wk =   0.0416667
        k(   27) = (   0.0833333   0.2405626   0.0000000), wk =   0.0416667
        k(   28) = (   0.0833333   0.2886751   0.0000000), wk =   0.0416667
        k(   29) = (   0.0833333   0.3367877   0.0000000), wk =   0.0416667
        k(   30) = (   0.0833333   0.3849002   0.0000000), wk =   0.0416667
        k(   31) = (   0.0833333   0.4330127   0.0000000), wk =   0.0416667
        k(   32) = (   0.0833333   0.4811252   0.0000000), wk =   0.0416667
        k(   33) = (   0.0833333   0.5292377   0.0000000), wk =   0.0416667
        k(   34) = (   0.0833333   0.5773503   0.0000000), wk =   0.0208333
        k(   35) = (   0.1250000   0.2165064   0.0000000), wk =   0.0208333
        k(   36) = (   0.1250000   0.2646189   0.0000000), wk =   0.0416667
        k(   37) = (   0.1250000   0.3127314   0.0000000), wk =   0.0416667
        k(   38) = (   0.1250000   0.3608439   0.0000000), wk =   0.0416667
        k(   39) = (   0.1250000   0.4089564   0.0000000), wk =   0.0416667
        k(   40) = (   0.1250000   0.4570690   0.0000000), wk =   0.0416667
        k(   41) = (   0.1250000   0.5051815   0.0000000), wk =   0.0416667
        k(   42) = (   0.1250000   0.5532940   0.0000000), wk =   0.0416667
        k(   43) = (   0.1666667   0.2886751   0.0000000), wk =   0.0208333
        k(   44) = (   0.1666667   0.3367877   0.0000000), wk =   0.0416667
        k(   45) = (   0.1666667   0.3849002   0.0000000), wk =   0.0416667
        k(   46) = (   0.1666667   0.4330127   0.0000000), wk =   0.0416667
        k(   47) = (   0.1666667   0.4811252   0.0000000), wk =   0.0416667
        k(   48) = (   0.1666667   0.5292377   0.0000000), wk =   0.0416667
        k(   49) = (   0.1666667   0.5773503   0.0000000), wk =   0.0208333
        k(   50) = (   0.2083333   0.3608439   0.0000000), wk =   0.0208333
        k(   51) = (   0.2083333   0.4089564   0.0000000), wk =   0.0416667
        k(   52) = (   0.2083333   0.4570690   0.0000000), wk =   0.0416667
        k(   53) = (   0.2083333   0.5051815   0.0000000), wk =   0.0416667
        k(   54) = (   0.2083333   0.5532940   0.0000000), wk =   0.0416667
        k(   55) = (   0.2500000   0.4330127   0.0000000), wk =   0.0208333
        k(   56) = (   0.2500000   0.4811252   0.0000000), wk =   0.0416667
        k(   57) = (   0.2500000   0.5292377   0.0000000), wk =   0.0416667
        k(   58) = (   0.2500000   0.5773503   0.0000000), wk =   0.0208333
        k(   59) = (   0.2916667   0.5051815   0.0000000), wk =   0.0208333
        k(   60) = (   0.2916667   0.5532940   0.0000000), wk =   0.0416667
        k(   61) = (   0.3333333   0.5773503   0.0000000), wk =   0.0069444

     Dense  grid:   455489 G-vectors     FFT dimensions: (  64,  64, 270)

     Smooth grid:   160939 G-vectors     FFT dimensions: (  45,  45, 192)

     Estimated max dynamical RAM per process >     322.30 MB

     Estimated total dynamical RAM >       1.89 GB

     Initial potential from superposition of free atoms

     starting charge   25.99991, renormalised to   28.00000

     negative rho (up, down):  5.949E-04 0.000E+00
     Starting wfcs are   18 randomized atomic wfcs

     total cpu time spent up to now is        5.9 secs

     Self-consistent Calculation

     iteration #  1     ecut=    60.00 Ry     beta= 0.70
     Davidson diagonalization with overlap
     ethr =  1.00E-02,  avg # of iterations =  8.8

     negative rho (up, down):  1.811E-04 0.000E+00

     total cpu time spent up to now is       28.8 secs

     total energy              =    -325.46000291 Ry
     estimated scf accuracy    <       2.46592154 Ry

     iteration #  2     ecut=    60.00 Ry     beta= 0.70
     Davidson diagonalization with overlap
     ethr =  8.81E-03,  avg # of iterations =  2.1

     negative rho (up, down):  1.230E-04 0.000E+00

     total cpu time spent up to now is       46.9 secs

     total energy              =    -326.35837562 Ry
     estimated scf accuracy    <       0.38095323 Ry

     iteration #  3     ecut=    60.00 Ry     beta= 0.70
     Davidson diagonalization with overlap
     ethr =  1.36E-03,  avg # of iterations =  2.2

     negative rho (up, down):  8.843E-05 0.000E+00

     total cpu time spent up to now is       65.9 secs

     total energy              =    -326.41630708 Ry
     estimated scf accuracy    <       0.00621933 Ry

     iteration #  4     ecut=    60.00 Ry     beta= 0.70
     Davidson diagonalization with overlap
     c_bands:  1 eigenvalues not converged
     ethr =  2.22E-05,  avg # of iterations =  8.4

     negative rho (up, down):  8.452E-05 0.000E+00

     total cpu time spent up to now is       88.6 secs

     total energy              =    -326.41833052 Ry
     estimated scf accuracy    <       0.00034691 Ry

     iteration #  5     ecut=    60.00 Ry     beta= 0.70
     Davidson diagonalization with overlap
     ethr =  1.24E-06,  avg # of iterations =  4.7

     negative rho (up, down):  8.477E-05 0.000E+00

     total cpu time spent up to now is      106.9 secs

     total energy              =    -326.41836673 Ry
     estimated scf accuracy    <       0.00003680 Ry

     iteration #  6     ecut=    60.00 Ry     beta= 0.70
     Davidson diagonalization with overlap
     ethr =  1.31E-07,  avg # of iterations =  2.2

     negative rho (up, down):  8.536E-05 0.000E+00

     total cpu time spent up to now is      122.4 secs

     total energy              =    -326.41837461 Ry
     estimated scf accuracy    <       0.00001432 Ry

     iteration #  7     ecut=    60.00 Ry     beta= 0.70
     Davidson diagonalization with overlap
     ethr =  5.11E-08,  avg # of iterations =  2.0

     negative rho (up, down):  8.564E-05 0.000E+00

     total cpu time spent up to now is      137.2 secs

     End of self-consistent calculation

          k = 0.0000 0.0000 0.0000 ( 20025 PWs)   bands (ev):

   -23.5233 -23.5233 -23.4452 -23.4452 -23.4306 -23.3607 -23.2183 -23.2183
   -23.1623 -23.1623 -11.3691  -5.2719  -2.3993  -2.3993  -1.9401  -0.0634
     1.0956   1.0956

          k = 0.0000 0.0481 0.0000 ( 20035 PWs)   bands (ev):

   -23.5243 -23.5241 -23.4469 -23.4440 -23.4282 -23.3595 -23.2208 -23.2207
   -23.1610 -23.1600 -11.3544  -5.2950  -2.6887  -2.4319  -1.6325  -0.0623
     1.0656   1.1514

          k = 0.0000 0.0962 0.0000 ( 20005 PWs)   bands (ev):

   -23.5267 -23.5262 -23.4507 -23.4406 -23.4228 -23.3557 -23.2273 -23.2268
   -23.1578 -23.1542 -11.3103  -5.3725  -3.0756  -2.5224  -1.1966  -0.0622
     1.0102   1.3108

          k = 0.0000 0.1443 0.0000 ( 20065 PWs)   bands (ev):

   -23.5299 -23.5291 -23.4555 -23.4356 -23.4163 -23.3496 -23.2359 -23.2352
   -23.1540 -23.1466 -11.2372  -5.5252  -3.3856  -2.6541  -0.8327  -0.0720
     1.0142   1.5536

          k = 0.0000 0.1925 0.0000 ( 20113 PWs)   bands (ev):

   -23.5332 -23.5325 -23.4609 -23.4297 -23.4100 -23.3412 -23.2453 -23.2446
   -23.1507 -23.1384 -11.1355  -5.7689  -3.5810  -2.8082  -0.6321  -0.0949
     1.1588   2.1785

          k = 0.0000 0.2406 0.0000 ( 20071 PWs)   bands (ev):

   -23.5359 -23.5358 -23.4668 -23.4234 -23.4047 -23.3309 -23.2548 -23.2538
   -23.1486 -23.1304 -11.0061  -6.0948  -3.6617  -2.9686  -0.6194  -0.1238
     1.4175   2.2894

          k = 0.0000 0.2887 0.0000 ( 20087 PWs)   bands (ev):

   -23.5388 -23.5376 -23.4730 -23.4171 -23.4008 -23.3194 -23.2639 -23.2622
   -23.1478 -23.1230 -10.8505  -6.4732  -3.6524  -3.1236  -0.7247  -0.1718
     1.6532   2.4647

          k = 0.0000 0.3368 0.0000 ( 20109 PWs)   bands (ev):

   -23.5414 -23.5381 -23.4795 -23.4113 -23.3984 -23.3076 -23.2721 -23.2688
   -23.1484 -23.1164 -10.6710  -6.8731  -3.5813  -3.2647  -0.8786  -0.2521
     1.8070   2.6672

          k = 0.0000 0.3849 0.0000 ( 20145 PWs)   bands (ev):

   -23.5434 -23.5373 -23.4862 -23.4063 -23.3974 -23.2973 -23.2791 -23.2726
   -23.1502 -23.1107 -10.4720  -7.2699  -3.4715  -3.3862  -1.0489  -0.3564
     1.9384   2.8824

          k = 0.0000 0.4330 0.0000 ( 20161 PWs)   bands (ev):

   -23.5450 -23.5353 -23.4928 -23.4023 -23.3973 -23.2916 -23.2848 -23.2711
   -23.1529 -23.1062 -10.2615  -7.6432  -3.4841  -3.3427  -1.2198  -0.4639
     2.0867   3.1010

          k = 0.0000 0.4811 0.0000 ( 20157 PWs)   bands (ev):

   -23.5461 -23.5325 -23.4988 -23.3993 -23.3977 -23.2907 -23.2890 -23.2654
   -23.1559 -23.1029 -10.0563  -7.9689  -3.5557  -3.2164  -1.3750  -0.5539
     2.2515   3.2807

          k = 0.0000 0.5292 0.0000 ( 20142 PWs)   bands (ev):

   -23.5467 -23.5298 -23.5036 -23.3981 -23.3975 -23.2915 -23.2911 -23.2603
   -23.1583 -23.1009  -9.8910  -8.2079  -3.5992  -3.1198  -1.4893  -0.6122
     2.4016   3.3378

          k = 0.0000-0.5774 0.0000 ( 20152 PWs)   bands (ev):

   -23.5469 -23.5285 -23.5056 -23.3983 -23.3970 -23.2924 -23.2914 -23.2583
   -23.1592 -23.1002  -9.8236  -8.3002  -3.6139  -3.0827  -1.5324  -0.6323
     2.4690   3.3907

          k = 0.0417 0.0722 0.0000 ( 20017 PWs)   bands (ev):

   -23.5259 -23.5256 -23.4495 -23.4418 -23.4244 -23.3570 -23.2254 -23.2248
   -23.1589 -23.1558 -11.3250  -5.3453  -2.9749  -2.4977  -1.3066  -0.0617
     1.0133   1.2677

          k = 0.0417 0.1203 0.0000 ( 20039 PWs)   bands (ev):

   -23.5286 -23.5282 -23.4535 -23.4380 -23.4183 -23.3521 -23.2330 -23.2318
   -23.1558 -23.1489 -11.2664  -5.4608  -3.2826  -2.6187  -0.9252  -0.0675
     0.9595   1.4893

          k = 0.0417 0.1684 0.0000 ( 20081 PWs)   bands (ev):

   -23.5320 -23.5312 -23.4584 -23.4329 -23.4116 -23.3449 -23.2419 -23.2404
   -23.1528 -23.1409 -11.1790  -5.6606  -3.5110  -2.7727  -0.6297  -0.0884
     0.9978   1.7840

          k = 0.0417 0.2165 0.0000 ( 20075 PWs)   bands (ev):

   -23.5356 -23.5339 -23.4640 -23.4271 -23.4053 -23.3358 -23.2512 -23.2497
   -23.1505 -23.1326 -11.0634  -5.9478  -3.6326  -2.9397  -0.5166  -0.1139
     1.1877   2.0991

          k = 0.0417 0.2646 0.0000 ( 20107 PWs)   bands (ev):

   -23.5389 -23.5359 -23.4701 -23.4211 -23.4001 -23.3251 -23.2603 -23.2585
   -23.1495 -23.1247 -10.9207  -6.3012  -3.6585  -3.1042  -0.5804  -0.1358
     1.4654   2.2940

          k = 0.0417 0.3127 0.0000 ( 20105 PWs)   bands (ev):

   -23.5418 -23.5368 -23.4765 -23.4154 -23.3965 -23.3137 -23.2686 -23.2660
   -23.1499 -23.1175 -10.7528  -6.6900  -3.6165  -3.2532  -0.7302  -0.1821
     1.7020   2.4989

          k = 0.0417 0.3608 0.0000 ( 20127 PWs)   bands (ev):

   -23.5442 -23.5366 -23.4831 -23.4102 -23.3943 -23.3027 -23.2761 -23.2713
   -23.1515 -23.1111 -10.5629  -7.0874  -3.5468  -3.3632  -0.9111  -0.2584
     1.8673   2.7240

          k = 0.0417 0.4090 0.0000 ( 20135 PWs)   bands (ev):

   -23.5460 -23.5353 -23.4898 -23.4058 -23.3935 -23.2948 -23.2823 -23.2724
   -23.1543 -23.1059 -10.3567  -7.4722  -3.5578  -3.3405  -1.1007  -0.3493
     2.0165   2.9078

          k = 0.0417 0.4571 0.0000 ( 20146 PWs)   bands (ev):

   -23.5473 -23.5329 -23.4961 -23.4022 -23.3936 -23.2920 -23.2870 -23.2682
   -23.1575 -23.1018 -10.1457  -7.8234  -3.6277  -3.2233  -1.2830  -0.4347
     2.1756   3.0350

          k = 0.0417 0.5052 0.0000 ( 20148 PWs)   bands (ev):

   -23.5481 -23.5301 -23.5017 -23.3994 -23.3944 -23.2922 -23.2902 -23.2623
   -23.1606 -23.0991  -9.9539  -8.1113  -3.6825  -3.1076  -1.4355  -0.4989
     2.3313   3.1220

          k = 0.0417 0.5533 0.0000 ( 20150 PWs)   bands (ev):

   -23.5485 -23.5279 -23.5052 -23.3973 -23.3956 -23.2927 -23.2916 -23.2586
   -23.1624 -23.0977  -9.8289  -8.2850  -3.7110  -3.0350  -1.5261  -0.5330
     2.4373   3.2208

          k = 0.0833 0.1443 0.0000 ( 20061 PWs)   bands (ev):

   -23.5315 -23.5308 -23.4574 -23.4345 -23.4118 -23.3463 -23.2408 -23.2388
   -23.1539 -23.1414 -11.1935  -5.6246  -3.4757  -2.7769  -0.6020  -0.0890
     0.9015   1.7860

          k = 0.0833 0.1925 0.0000 ( 20087 PWs)   bands (ev):

   -23.5353 -23.5330 -23.4623 -23.4301 -23.4046 -23.3386 -23.2495 -23.2471
   -23.1526 -23.1329 -11.0921  -5.8713  -3.5980  -2.9639  -0.3465  -0.1303
     0.9371   2.2348

          k = 0.0833 0.2406 0.0000 ( 20121 PWs)   bands (ev):

   -23.5392 -23.5346 -23.4680 -23.4250 -23.3978 -23.3295 -23.2581 -23.2557
   -23.1524 -23.1244 -10.9630  -6.1892  -3.6395  -3.1534  -0.3452  -0.0945
     1.1328   2.2451

          k = 0.0833 0.2887 0.0000 ( 20106 PWs)   bands (ev):

   -23.5429 -23.5354 -23.4742 -23.4197 -23.3922 -23.3193 -23.2663 -23.2635
   -23.1533 -23.1164 -10.8077  -6.5533  -3.6197  -3.3229  -0.5077  -0.0567
     1.4344   2.3313

          k = 0.0833 0.3368 0.0000 ( 20114 PWs)   bands (ev):

   -23.5460 -23.5353 -23.4807 -23.4145 -23.3883 -23.3091 -23.2736 -23.2696
   -23.1555 -23.1091 -10.6285  -6.9379  -3.6062  -3.4138  -0.7128  -0.0719
     1.7228   2.4826

          k = 0.0833 0.3849 0.0000 ( 20126 PWs)   bands (ev):

   -23.5485 -23.5341 -23.4873 -23.4095 -23.3861 -23.3006 -23.2800 -23.2723
   -23.1589 -23.1028 -10.4294  -7.3216  -3.6921  -3.3443  -0.9336  -0.1177
     1.9417   2.6411

          k = 0.0833 0.4330 0.0000 ( 20149 PWs)   bands (ev):

   -23.5504 -23.5321 -23.4938 -23.4050 -23.3858 -23.2961 -23.2852 -23.2700
   -23.1629 -23.0978 -10.2184  -7.6853  -3.7919  -3.2126  -1.1538  -0.1740
     2.1178   2.7401

          k = 0.0833 0.4811 0.0000 ( 20151 PWs)   bands (ev):

   -23.5517 -23.5294 -23.4996 -23.4009 -23.3868 -23.2949 -23.2892 -23.2644
   -23.1671 -23.0941 -10.0115  -8.0054  -3.8689  -3.0734  -1.3529  -0.2246
     2.2645   2.8261

          k = 0.0833 0.5292 0.0000 ( 20157 PWs)   bands (ev):

   -23.5524 -23.5267 -23.5042 -23.3974 -23.3888 -23.2947 -23.2919 -23.2594
   -23.1703 -23.0918  -9.8433  -8.2431  -3.9163  -2.9617  -1.5006  -0.2590
     2.3581   2.9591

          k = 0.0833 0.5774 0.0000 ( 20154 PWs)   bands (ev):

   -23.5527 -23.5255 -23.5061 -23.3956 -23.3901 -23.2943 -23.2931 -23.2574
   -23.1715 -23.0911  -9.7739  -8.3359  -3.9323  -2.9173  -1.5570  -0.2711
     2.3875   3.0806

          k = 0.1250 0.2165 0.0000 ( 20099 PWs)   bands (ev):

   -23.5393 -23.5342 -23.4671 -23.4266 -23.3967 -23.3311 -23.2574 -23.2546
   -23.1536 -23.1242 -10.9772  -6.1502  -3.6248  -3.1860  -0.2288  -0.0462
     0.9385   2.2538

          k = 0.1250 0.2646 0.0000 ( 20119 PWs)   bands (ev):

   -23.5435 -23.5347 -23.4729 -23.4223 -23.3890 -23.3229 -23.2651 -23.2620
   -23.1557 -23.1154 -10.8353  -6.4794  -3.5975  -3.4021  -0.3724   0.1484
     1.0973   2.3060

          k = 0.1250 0.3127 0.0000 ( 20122 PWs)   bands (ev):

   -23.5474 -23.5344 -23.4791 -23.4174 -23.3827 -23.3145 -23.2721 -23.2682
   -23.1591 -23.1071 -10.6681  -6.8379  -3.6409  -3.4797  -0.5666   0.2203
     1.4066   2.3750

          k = 0.1250 0.3608 0.0000 ( 20112 PWs)   bands (ev):

   -23.5507 -23.5332 -23.4856 -23.4123 -23.3783 -23.3071 -23.2785 -23.2717
   -23.1635 -23.0997 -10.4786  -7.2068  -3.8078  -3.3683  -0.7915   0.2240
     1.7520   2.4426

          k = 0.1250 0.4090 0.0000 ( 20146 PWs)   bands (ev):

   -23.5535 -23.5312 -23.4920 -23.4072 -23.3762 -23.3023 -23.2839 -23.2708
   -23.1688 -23.0935 -10.2719  -7.5685  -3.9519  -3.2214  -1.0286   0.2004
     2.0414   2.4670

          k = 0.1250 0.4571 0.0000 ( 20145 PWs)   bands (ev):

   -23.5555 -23.5287 -23.4979 -23.4022 -23.3765 -23.3000 -23.2883 -23.2661
   -23.1745 -23.0886 -10.0587  -7.9041  -4.0622  -3.0623  -1.2583   0.1692
     2.2188   2.5270

          k = 0.1250 0.5052 0.0000 ( 20141 PWs)   bands (ev):

   -23.5568 -23.5259 -23.5030 -23.3977 -23.3783 -23.2986 -23.2919 -23.2605
   -23.1795 -23.0853  -9.8620  -8.1853  -4.1364  -2.9152  -1.4542   0.1424
     2.2563   2.7145

          k = 0.1250 0.5533 0.0000 ( 20145 PWs)   bands (ev):

   -23.5575 -23.5237 -23.5063 -23.3945 -23.3804 -23.2972 -23.2947 -23.2567
   -23.1826 -23.0836  -9.7309  -8.3594  -4.1737  -2.8196  -1.5748   0.1273
     2.2519   2.9314

          k = 0.1667 0.2887 0.0000 ( 20113 PWs)   bands (ev):

   -23.5479 -23.5341 -23.4786 -23.4184 -23.3803 -23.3167 -23.2716 -23.2677
   -23.1604 -23.1063 -10.6814  -6.8025  -3.6518  -3.5084  -0.5197   0.4381
     1.1647   2.3787

          k = 0.1667 0.3368 0.0000 ( 20110 PWs)   bands (ev):

   -23.5520 -23.5327 -23.4847 -23.4138 -23.3728 -23.3118 -23.2776 -23.2712
   -23.1663 -23.0979 -10.5033  -7.1437  -3.8751  -3.3860  -0.7173   0.5957
     1.4189   2.4446

          k = 0.1667 0.3849 0.0000 ( 20115 PWs)   bands (ev):

   -23.5556 -23.5307 -23.4908 -23.4086 -23.3676 -23.3087 -23.2830 -23.2710
   -23.1731 -23.0904 -10.3047  -7.4889  -4.0650  -3.2347  -0.9432   0.6365
     1.7929   2.3715

          k = 0.1667 0.4330 0.0000 ( 20139 PWs)   bands (ev):

   -23.5585 -23.5282 -23.4967 -23.4032 -23.3653 -23.3068 -23.2877 -23.2672
   -23.1804 -23.0844 -10.0921  -7.8231  -4.2153  -3.0655  -1.1782   0.6360
     2.1599   2.2618

          k = 0.1667 0.4811 0.0000 ( 20145 PWs)   bands (ev):

   -23.5607 -23.5254 -23.5019 -23.3980 -23.3659 -23.3049 -23.2920 -23.2616
   -23.1875 -23.0798  -9.8800  -8.1263  -4.3236  -2.8945  -1.4004   0.6249
     2.1514   2.5058

          k = 0.1667 0.5292 0.0000 ( 20147 PWs)   bands (ev):

   -23.5620 -23.5228 -23.5060 -23.3937 -23.3679 -23.3024 -23.2957 -23.2565
   -23.1930 -23.0770  -9.7017  -8.3608  -4.3888  -2.7523  -1.5750   0.6149
     2.0900   2.7987

          k = 0.1667 0.5774 0.0000 ( 20135 PWs)   bands (ev):

   -23.5624 -23.5215 -23.5078 -23.3919 -23.3691 -23.2998 -23.2986 -23.2544
   -23.1952 -23.0761  -9.6252  -8.4563  -4.4106  -2.6926  -1.6458   0.6110
     2.0688   2.9650

          k = 0.2083 0.3608 0.0000 ( 20119 PWs)   bands (ev):

   -23.5563 -23.5306 -23.4904 -23.4091 -23.3638 -23.3116 -23.2827 -23.2710
   -23.1746 -23.0894 -10.3157  -7.4604  -4.1058  -3.2403  -0.9133   0.9288
     1.5400   2.4144

          k = 0.2083 0.4090 0.0000 ( 20133 PWs)   bands (ev):

   -23.5602 -23.5280 -23.4960 -23.4037 -23.3570 -23.3128 -23.2875 -23.2676
   -23.1836 -23.0821 -10.1094  -7.7777  -4.2996  -3.0703  -1.1328   1.0855
     1.8568   2.2426

          k = 0.2083 0.4571 0.0000 ( 20137 PWs)   bands (ev):

   -23.5632 -23.5252 -23.5012 -23.3982 -23.3538 -23.3126 -23.2920 -23.2623
   -23.1928 -23.0763  -9.8926  -8.0823  -4.4483  -2.8879  -1.3580   1.1315
     2.0686   2.2813

          k = 0.2083 0.5052 0.0000 ( 20163 PWs)   bands (ev):

   -23.5653 -23.5224 -23.5056 -23.3932 -23.3543 -23.3099 -23.2964 -23.2566
   -23.2010 -23.0723  -9.6848  -8.3510  -4.5486  -2.7129  -1.5643   1.1470
     1.9615   2.6515

          k = 0.2083 0.5533 0.0000 ( 20157 PWs)   bands (ev):

   -23.5664 -23.5202 -23.5085 -23.3900 -23.3558 -23.3057 -23.3010 -23.2525
   -23.2063 -23.0703  -9.5365  -8.5303  -4.5990  -2.5897  -1.7039   1.1528
     1.9021   2.9400

          k = 0.2500 0.4330 0.0000 ( 20149 PWs)   bands (ev):

   -23.5641 -23.5251 -23.5009 -23.3983 -23.3478 -23.3171 -23.2920 -23.2626
   -23.1946 -23.0751  -9.8972  -8.0660  -4.4921  -2.8867  -1.3420   1.4507
     2.0249   2.0866

          k = 0.2500 0.4811 0.0000 ( 20153 PWs)   bands (ev):

   -23.5671 -23.5222 -23.5053 -23.3929 -23.3425 -23.3183 -23.2968 -23.2567
   -23.2053 -23.0698  -9.6774  -8.3420  -4.6336  -2.6952  -1.5545   1.6105
     1.9408   2.3941

          k = 0.2500 0.5292 0.0000 ( 20133 PWs)   bands (ev):

   -23.5690 -23.5195 -23.5088 -23.3888 -23.3421 -23.3144 -23.3022 -23.2510
   -23.2141 -23.0666  -9.4763  -8.5777  -4.7198  -2.5212  -1.7423   1.6766
     1.8274   2.7973

          k = 0.2500 0.5774 0.0000 ( 20123 PWs)   bands (ev):

   -23.5696 -23.5182 -23.5105 -23.3872 -23.3428 -23.3084 -23.3080 -23.2482
   -23.2180 -23.0655  -9.3779  -8.6877  -4.7488  -2.4374  -1.8309   1.7229
     1.7595   3.0116

          k = 0.2917 0.5052 0.0000 ( 20137 PWs)   bands (ev):

   -23.5699 -23.5194 -23.5089 -23.3884 -23.3329 -23.3218 -23.3026 -23.2504
   -23.2170 -23.0653  -9.4548  -8.5941  -4.7615  -2.4969  -1.7559   1.7271
     2.1267   2.5598

          k = 0.2917 0.5533 0.0000 ( 20132 PWs)   bands (ev):

   -23.5713 -23.5169 -23.5117 -23.3857 -23.3302 -23.3175 -23.3096 -23.2443
   -23.2260 -23.0630  -9.2579  -8.8056  -4.8266  -2.3240  -1.9305   1.6838
     2.2629   2.8556

          k = 0.3333 0.5774 0.0000 ( 20133 PWs)   bands (ev):

   -23.5721 -23.5143 -23.5143 -23.3845 -23.3206 -23.3182 -23.3180 -23.2361
   -23.2361 -23.0618  -9.0333  -9.0332  -4.8628  -2.1257  -2.1257   1.6507
     2.6920   2.6920

     the Fermi energy is    -2.1322 ev

!    total energy              =    -326.41837655 Ry
     estimated scf accuracy    <       0.00000081 Ry
     smearing contrib. (-TS)   =       0.00109395 Ry
     internal energy E=F+TS    =    -326.41947049 Ry

     The total energy is F=E-TS. E is the sum of the following terms:
     one-electron contribution =    -856.47241576 Ry
     hartree contribution      =     435.94008188 Ry
     xc contribution           =     -95.00860193 Ry
     ewald contribution        =     189.12146532 Ry

     convergence has been achieved in   7 iterations

     Writing output data file ../tmp/stanene.save/

     init_run     :      5.49s CPU      5.75s WALL (       1 calls)
     electrons    :    126.21s CPU    131.35s WALL (       1 calls)

     Called by init_run:
     wfcinit      :      4.31s CPU      4.45s WALL (       1 calls)
     potinit      :      0.42s CPU      0.42s WALL (       1 calls)
     hinit0       :      0.40s CPU      0.40s WALL (       1 calls)

     Called by electrons:
     c_bands      :    108.63s CPU    112.09s WALL (       7 calls)
     sum_band     :     13.69s CPU     14.73s WALL (       7 calls)
     v_of_rho     :      1.33s CPU      1.44s WALL (       8 calls)
     newd         :      2.46s CPU      3.09s WALL (       8 calls)
     mix_rho      :      0.26s CPU      0.26s WALL (       7 calls)

     Called by c_bands:
     init_us_2    :      0.84s CPU      0.85s WALL (     915 calls)
     cegterg      :    105.28s CPU    108.73s WALL (     427 calls)

     Called by *egterg:
     cdiaghg      :      1.62s CPU      1.64s WALL (    2276 calls)
     h_psi        :     66.52s CPU     69.84s WALL (    2337 calls)
     s_psi        :      4.64s CPU      4.70s WALL (    2337 calls)
     g_psi        :      0.43s CPU      0.43s WALL (    1849 calls)

     Called by h_psi:
     h_psi:calbec :      8.23s CPU      8.57s WALL (    2337 calls)
     vloc_psi     :     53.15s CPU     56.05s WALL (    2337 calls)
     add_vuspsi   :      4.89s CPU      4.98s WALL (    2337 calls)

     General routines
     calbec       :     10.54s CPU     10.96s WALL (    2764 calls)
     fft          :      1.54s CPU      1.58s WALL (     102 calls)
     ffts         :      0.07s CPU      0.07s WALL (      15 calls)
     fftw         :     55.62s CPU     58.43s WALL (   54452 calls)
     interpolate  :      0.20s CPU      0.20s WALL (       8 calls)

     Parallel routines
     fft_scatt_xy :      4.87s CPU      5.27s WALL (   54569 calls)
     fft_scatt_yz :     31.20s CPU     32.34s WALL (   54569 calls)

     PWSCF        :   2m11.93s CPU   2m17.61s WALL


   This run was terminated on:  23:13:24  23Jan2024            

=------------------------------------------------------------------------------=
   JOB DONE.
=------------------------------------------------------------------------------=
