
     Program PWSCF v.6.7MaX starts on 23Jan2024 at 23: 6:34 

     This program is part of the open-source Quantum ESPRESSO suite
     for quantum simulation of materials; please cite
         "P. Giannozzi et al., J. Phys.:Condens. Matter 21 395502 (2009);
         "P. Giannozzi et al., J. Phys.:Condens. Matter 29 465901 (2017);
          URL http://www.quantum-espresso.org", 
     in publications or presentations arising from this work. More details at
     http://www.quantum-espresso.org/quote

     Parallel version (MPI), running on     6 processors

     MPI processes distributed on     1 nodes
     R & G space division:  proc/nbgrp/npool/nimage =       6
     Waiting for input...
     Reading input from standard input

     Current dimensions of program PWSCF are:
     Max number of different atomic species (ntypx) = 10
     Max number of k-points (npk) =  40000
     Max angular momentum in pseudopotentials (lmaxx) =  3

     Subspace diagonalization in iterative solution of the eigenvalue problem:
     one sub-group per band group will be used
     scalapack distributed-memory algorithm (size of sub-group:  2*  2 procs)


     Parallelization info
     --------------------
     sticks:   dense  smooth     PW     G-vecs:    dense   smooth      PW
     Min         431     214     61                75909    26818    4015
     Max         432     215     62                75924    26841    4025
     Sum        2587    1285    367               455489   160939   24117



     bravais-lattice index     =            4
     lattice parameter (alat)  =       8.8506  a.u.
     unit-cell volume          =    2563.9136 (a.u.)^3
     number of atoms/cell      =            2
     number of atomic types    =            1
     number of electrons       =        28.00
     number of Kohn-Sham states=           18
     kinetic-energy cutoff     =      60.0000  Ry
     charge density cutoff     =     480.0000  Ry
     scf convergence threshold =      1.0E-06
     mixing beta               =       0.7000
     number of iterations used =            8  plain     mixing
     Exchange-correlation= SLA  PW   PBE  PBE
                           (   1   4   3   4   0   0   0)

     celldm(1)=   8.850584  celldm(2)=   0.000000  celldm(3)=   4.270286
     celldm(4)=   0.000000  celldm(5)=   0.000000  celldm(6)=   0.000000

     crystal axes: (cart. coord. in units of alat)
               a(1) = (   1.000000   0.000000   0.000000 )  
               a(2) = (  -0.500000   0.866025   0.000000 )  
               a(3) = (   0.000000   0.000000   4.270286 )  

     reciprocal axes: (cart. coord. in units 2 pi/alat)
               b(1) = (  1.000000  0.577350 -0.000000 )  
               b(2) = (  0.000000  1.154701  0.000000 )  
               b(3) = (  0.000000 -0.000000  0.234176 )  


     PseudoPot. # 1 for Sn read from file:
     ../pseudo/Sn_pbe_v1.uspp.F.UPF
     MD5 check sum: 4cf58ce39ec5d5d420df3dd08604eb00
     Pseudo is Ultrasoft + core correction, Zval = 14.0
     Generated by new atomic code, or converted to UPF format
     Using radial grid of  891 points,  6 beta functions with: 
                l(1) =   0
                l(2) =   0
                l(3) =   1
                l(4) =   1
                l(5) =   2
                l(6) =   2
     Q(r) pseudized with  6 coefficients,  rinner =    1.200   1.200   1.200
                                                       1.200   1.200

     atomic species   valence    mass     pseudopotential
        Sn            14.00   118.71000     Sn( 1.00)

      6 Sym. Ops. (no inversion) found



   Cartesian axes

     site n.     atom                  positions (alat units)
         1           Sn  tau(   1) = (   0.0000000   0.5773503   2.1351428  )
         2           Sn  tau(   2) = (   0.5000000   0.2886751   1.9552503  )

     number of k points=    61  Methfessel-Paxton smearing, width (Ry)=  0.0150
                       cart. coord. in units 2pi/alat
        k(    1) = (   0.0000000   0.0000000   0.0000000), wk =   0.0034722
        k(    2) = (   0.0000000   0.0481125   0.0000000), wk =   0.0208333
        k(    3) = (   0.0000000   0.0962250   0.0000000), wk =   0.0208333
        k(    4) = (   0.0000000   0.1443376   0.0000000), wk =   0.0208333
        k(    5) = (   0.0000000   0.1924501   0.0000000), wk =   0.0208333
        k(    6) = (   0.0000000   0.2405626   0.0000000), wk =   0.0208333
        k(    7) = (   0.0000000   0.2886751   0.0000000), wk =   0.0208333
        k(    8) = (   0.0000000   0.3367877   0.0000000), wk =   0.0208333
        k(    9) = (   0.0000000   0.3849002   0.0000000), wk =   0.0208333
        k(   10) = (   0.0000000   0.4330127   0.0000000), wk =   0.0208333
        k(   11) = (   0.0000000   0.4811252   0.0000000), wk =   0.0208333
        k(   12) = (   0.0000000   0.5292377   0.0000000), wk =   0.0208333
        k(   13) = (   0.0000000  -0.5773503   0.0000000), wk =   0.0104167
        k(   14) = (   0.0416667   0.0721688   0.0000000), wk =   0.0208333
        k(   15) = (   0.0416667   0.1202813   0.0000000), wk =   0.0416667
        k(   16) = (   0.0416667   0.1683938   0.0000000), wk =   0.0416667
        k(   17) = (   0.0416667   0.2165064   0.0000000), wk =   0.0416667
        k(   18) = (   0.0416667   0.2646189   0.0000000), wk =   0.0416667
        k(   19) = (   0.0416667   0.3127314   0.0000000), wk =   0.0416667
        k(   20) = (   0.0416667   0.3608439   0.0000000), wk =   0.0416667
        k(   21) = (   0.0416667   0.4089564   0.0000000), wk =   0.0416667
        k(   22) = (   0.0416667   0.4570690   0.0000000), wk =   0.0416667
        k(   23) = (   0.0416667   0.5051815   0.0000000), wk =   0.0416667
        k(   24) = (   0.0416667   0.5532940   0.0000000), wk =   0.0416667
        k(   25) = (   0.0833333   0.1443376   0.0000000), wk =   0.0208333
        k(   26) = (   0.0833333   0.1924501   0.0000000), wk =   0.0416667
        k(   27) = (   0.0833333   0.2405626   0.0000000), wk =   0.0416667
        k(   28) = (   0.0833333   0.2886751   0.0000000), wk =   0.0416667
        k(   29) = (   0.0833333   0.3367877   0.0000000), wk =   0.0416667
        k(   30) = (   0.0833333   0.3849002   0.0000000), wk =   0.0416667
        k(   31) = (   0.0833333   0.4330127   0.0000000), wk =   0.0416667
        k(   32) = (   0.0833333   0.4811252   0.0000000), wk =   0.0416667
        k(   33) = (   0.0833333   0.5292377   0.0000000), wk =   0.0416667
        k(   34) = (   0.0833333   0.5773503   0.0000000), wk =   0.0208333
        k(   35) = (   0.1250000   0.2165064   0.0000000), wk =   0.0208333
        k(   36) = (   0.1250000   0.2646189   0.0000000), wk =   0.0416667
        k(   37) = (   0.1250000   0.3127314   0.0000000), wk =   0.0416667
        k(   38) = (   0.1250000   0.3608439   0.0000000), wk =   0.0416667
        k(   39) = (   0.1250000   0.4089564   0.0000000), wk =   0.0416667
        k(   40) = (   0.1250000   0.4570690   0.0000000), wk =   0.0416667
        k(   41) = (   0.1250000   0.5051815   0.0000000), wk =   0.0416667
        k(   42) = (   0.1250000   0.5532940   0.0000000), wk =   0.0416667
        k(   43) = (   0.1666667   0.2886751   0.0000000), wk =   0.0208333
        k(   44) = (   0.1666667   0.3367877   0.0000000), wk =   0.0416667
        k(   45) = (   0.1666667   0.3849002   0.0000000), wk =   0.0416667
        k(   46) = (   0.1666667   0.4330127   0.0000000), wk =   0.0416667
        k(   47) = (   0.1666667   0.4811252   0.0000000), wk =   0.0416667
        k(   48) = (   0.1666667   0.5292377   0.0000000), wk =   0.0416667
        k(   49) = (   0.1666667   0.5773503   0.0000000), wk =   0.0208333
        k(   50) = (   0.2083333   0.3608439   0.0000000), wk =   0.0208333
        k(   51) = (   0.2083333   0.4089564   0.0000000), wk =   0.0416667
        k(   52) = (   0.2083333   0.4570690   0.0000000), wk =   0.0416667
        k(   53) = (   0.2083333   0.5051815   0.0000000), wk =   0.0416667
        k(   54) = (   0.2083333   0.5532940   0.0000000), wk =   0.0416667
        k(   55) = (   0.2500000   0.4330127   0.0000000), wk =   0.0208333
        k(   56) = (   0.2500000   0.4811252   0.0000000), wk =   0.0416667
        k(   57) = (   0.2500000   0.5292377   0.0000000), wk =   0.0416667
        k(   58) = (   0.2500000   0.5773503   0.0000000), wk =   0.0208333
        k(   59) = (   0.2916667   0.5051815   0.0000000), wk =   0.0208333
        k(   60) = (   0.2916667   0.5532940   0.0000000), wk =   0.0416667
        k(   61) = (   0.3333333   0.5773503   0.0000000), wk =   0.0069444

     Dense  grid:   455489 G-vectors     FFT dimensions: (  64,  64, 270)

     Smooth grid:   160939 G-vectors     FFT dimensions: (  45,  45, 192)

     Estimated max dynamical RAM per process >     322.30 MB

     Estimated total dynamical RAM >       1.89 GB

     Initial potential from superposition of free atoms

     starting charge   25.99991, renormalised to   28.00000

     negative rho (up, down):  5.949E-04 0.000E+00
     Starting wfcs are   18 randomized atomic wfcs

     total cpu time spent up to now is        6.7 secs

     Self-consistent Calculation

     iteration #  1     ecut=    60.00 Ry     beta= 0.70
     Davidson diagonalization with overlap
     ethr =  1.00E-02,  avg # of iterations =  8.8

     negative rho (up, down):  6.336E-05 0.000E+00

     total cpu time spent up to now is       28.0 secs

     total energy              =    -325.45903441 Ry
     estimated scf accuracy    <       2.46673764 Ry

     iteration #  2     ecut=    60.00 Ry     beta= 0.70
     Davidson diagonalization with overlap
     ethr =  8.81E-03,  avg # of iterations =  2.1

     negative rho (up, down):  6.444E-05 0.000E+00

     total cpu time spent up to now is       46.2 secs

     total energy              =    -326.35856386 Ry
     estimated scf accuracy    <       0.38117927 Ry

     iteration #  3     ecut=    60.00 Ry     beta= 0.70
     Davidson diagonalization with overlap
     ethr =  1.36E-03,  avg # of iterations =  2.2

     negative rho (up, down):  7.196E-05 0.000E+00

     total cpu time spent up to now is       63.2 secs

     total energy              =    -326.41657675 Ry
     estimated scf accuracy    <       0.00620712 Ry

     iteration #  4     ecut=    60.00 Ry     beta= 0.70
     Davidson diagonalization with overlap
     c_bands:  1 eigenvalues not converged
     ethr =  2.22E-05,  avg # of iterations =  8.4

     negative rho (up, down):  8.271E-05 0.000E+00

     total cpu time spent up to now is       86.8 secs

     total energy              =    -326.41859483 Ry
     estimated scf accuracy    <       0.00033911 Ry

     iteration #  5     ecut=    60.00 Ry     beta= 0.70
     Davidson diagonalization with overlap
     c_bands:  1 eigenvalues not converged
     ethr =  1.21E-06,  avg # of iterations =  5.1

     negative rho (up, down):  8.371E-05 0.000E+00

     total cpu time spent up to now is      105.8 secs

     total energy              =    -326.41862827 Ry
     estimated scf accuracy    <       0.00003794 Ry

     iteration #  6     ecut=    60.00 Ry     beta= 0.70
     Davidson diagonalization with overlap
     ethr =  1.35E-07,  avg # of iterations =  2.2

     negative rho (up, down):  8.509E-05 0.000E+00

     total cpu time spent up to now is      120.3 secs

     total energy              =    -326.41863611 Ry
     estimated scf accuracy    <       0.00001474 Ry

     iteration #  7     ecut=    60.00 Ry     beta= 0.70
     Davidson diagonalization with overlap
     ethr =  5.26E-08,  avg # of iterations =  2.0

     negative rho (up, down):  8.562E-05 0.000E+00

     total cpu time spent up to now is      135.0 secs

     End of self-consistent calculation

          k = 0.0000 0.0000 0.0000 ( 20025 PWs)   bands (ev):

   -23.5271 -23.5271 -23.4488 -23.4488 -23.4338 -23.3639 -23.2221 -23.2221
   -23.1662 -23.1662 -11.3727  -5.2740  -2.4032  -2.4032  -1.9435  -0.0647
     1.0921   1.0921

          k = 0.0000 0.0481 0.0000 ( 20035 PWs)   bands (ev):

   -23.5280 -23.5279 -23.4504 -23.4476 -23.4315 -23.3626 -23.2246 -23.2244
   -23.1649 -23.1639 -11.3580  -5.2971  -2.6924  -2.4357  -1.6360  -0.0635
     1.0621   1.1479

          k = 0.0000 0.0962 0.0000 ( 20005 PWs)   bands (ev):

   -23.5305 -23.5300 -23.4542 -23.4442 -23.4262 -23.3589 -23.2310 -23.2305
   -23.1617 -23.1581 -11.3140  -5.3748  -3.0790  -2.5262  -1.2002  -0.0635
     1.0068   1.3073

          k = 0.0000 0.1443 0.0000 ( 20065 PWs)   bands (ev):

   -23.5337 -23.5330 -23.4589 -23.4392 -23.4198 -23.3528 -23.2396 -23.2389
   -23.1579 -23.1505 -11.2409  -5.5277  -3.3888  -2.6579  -0.8363  -0.0734
     1.0110   1.5501

          k = 0.0000 0.1925 0.0000 ( 20113 PWs)   bands (ev):

   -23.5370 -23.5363 -23.4642 -23.4333 -23.4135 -23.3445 -23.2490 -23.2482
   -23.1546 -23.1424 -11.1392  -5.7717  -3.5839  -2.8120  -0.6356  -0.0965
     1.1558   2.1785

          k = 0.0000 0.2406 0.0000 ( 20071 PWs)   bands (ev):

   -23.5396 -23.5396 -23.4700 -23.4269 -23.4082 -23.3343 -23.2585 -23.2574
   -23.1525 -23.1344 -11.0098  -6.0979  -3.6644  -2.9724  -0.6228  -0.1257
     1.4150   2.2893

          k = 0.0000 0.2887 0.0000 ( 20087 PWs)   bands (ev):

   -23.5427 -23.5413 -23.4763 -23.4206 -23.4044 -23.3228 -23.2675 -23.2657
   -23.1517 -23.1270 -10.8542  -6.4765  -3.6548  -3.1274  -0.7278  -0.1740
     1.6516   2.4645

          k = 0.0000 0.3368 0.0000 ( 20109 PWs)   bands (ev):

   -23.5453 -23.5417 -23.4828 -23.4148 -23.4021 -23.3111 -23.2757 -23.2723
   -23.1523 -23.1203 -10.6747  -6.8764  -3.5836  -3.2685  -0.8814  -0.2546
     1.8059   2.6672

          k = 0.0000 0.3849 0.0000 ( 20145 PWs)   bands (ev):

   -23.5474 -23.5409 -23.4895 -23.4098 -23.4011 -23.3008 -23.2827 -23.2759
   -23.1541 -23.1147 -10.4756  -7.2734  -3.4737  -3.3900  -1.0515  -0.3592
     1.9375   2.8823

          k = 0.0000 0.4330 0.0000 ( 20161 PWs)   bands (ev):

   -23.5489 -23.5389 -23.4961 -23.4058 -23.4010 -23.2951 -23.2884 -23.2744
   -23.1569 -23.1102 -10.2652  -7.6467  -3.4879  -3.3449  -1.2222  -0.4670
     2.0858   3.1009

          k = 0.0000 0.4811 0.0000 ( 20157 PWs)   bands (ev):

   -23.5500 -23.5361 -23.5021 -23.4028 -23.4015 -23.2942 -23.2926 -23.2687
   -23.1598 -23.1069 -10.0600  -7.9724  -3.5595  -3.2186  -1.3772  -0.5571
     2.2506   3.2803

          k = 0.0000 0.5292 0.0000 ( 20142 PWs)   bands (ev):

   -23.5506 -23.5334 -23.5069 -23.4019 -23.4010 -23.2951 -23.2946 -23.2635
   -23.1622 -23.1049  -9.8947  -8.2115  -3.6031  -3.1220  -1.4913  -0.6156
     2.4006   3.3373

          k = 0.0000-0.5774 0.0000 ( 20152 PWs)   bands (ev):

   -23.5508 -23.5321 -23.5089 -23.4021 -23.4004 -23.2959 -23.2948 -23.2616
   -23.1631 -23.1042  -9.8272  -8.3038  -3.6177  -3.0849  -1.5344  -0.6357
     2.4680   3.3884

          k = 0.0417 0.0722 0.0000 ( 20017 PWs)   bands (ev):

   -23.5297 -23.5294 -23.4529 -23.4454 -23.4277 -23.3601 -23.2291 -23.2285
   -23.1628 -23.1597 -11.3286  -5.3475  -2.9784  -2.5015  -1.3102  -0.0630
     1.0099   1.2641

          k = 0.0417 0.1203 0.0000 ( 20039 PWs)   bands (ev):

   -23.5324 -23.5320 -23.4569 -23.4416 -23.4217 -23.3553 -23.2367 -23.2355
   -23.1597 -23.1529 -11.2700  -5.4632  -3.2859  -2.6226  -0.9288  -0.0689
     0.9563   1.4858

          k = 0.0417 0.1684 0.0000 ( 20081 PWs)   bands (ev):

   -23.5358 -23.5350 -23.4618 -23.4365 -23.4151 -23.3482 -23.2456 -23.2441
   -23.1566 -23.1448 -11.1826  -5.6632  -3.5140  -2.7765  -0.6333  -0.0899
     0.9947   1.7806

          k = 0.0417 0.2165 0.0000 ( 20075 PWs)   bands (ev):

   -23.5394 -23.5376 -23.4673 -23.4307 -23.4088 -23.3391 -23.2549 -23.2533
   -23.1544 -23.1366 -11.0670  -5.9507  -3.6353  -2.9435  -0.5200  -0.1156
     1.1848   2.0962

          k = 0.0417 0.2646 0.0000 ( 20107 PWs)   bands (ev):

   -23.5427 -23.5396 -23.4734 -23.4247 -23.4037 -23.3285 -23.2639 -23.2621
   -23.1534 -23.1287 -10.9244  -6.3044  -3.6610  -3.1080  -0.5835  -0.1379
     1.4631   2.2923

          k = 0.0417 0.3127 0.0000 ( 20105 PWs)   bands (ev):

   -23.5457 -23.5405 -23.4798 -23.4189 -23.4001 -23.3171 -23.2723 -23.2695
   -23.1538 -23.1214 -10.7565  -6.6933  -3.6189  -3.2570  -0.7330  -0.1846
     1.7005   2.4979

          k = 0.0417 0.3608 0.0000 ( 20127 PWs)   bands (ev):

   -23.5481 -23.5403 -23.4864 -23.4137 -23.3980 -23.3062 -23.2797 -23.2747
   -23.1554 -23.1151 -10.5665  -7.0908  -3.5494  -3.3667  -0.9136  -0.2612
     1.8662   2.7230

          k = 0.0417 0.4090 0.0000 ( 20135 PWs)   bands (ev):

   -23.5499 -23.5389 -23.4931 -23.4093 -23.3972 -23.2983 -23.2859 -23.2757
   -23.1582 -23.1099 -10.3603  -7.4757  -3.5613  -3.3431  -1.1031  -0.3523
     2.0156   2.9069

          k = 0.0417 0.4571 0.0000 ( 20146 PWs)   bands (ev):

   -23.5512 -23.5365 -23.4994 -23.4057 -23.3973 -23.2956 -23.2906 -23.2715
   -23.1614 -23.1058 -10.1493  -7.8269  -3.6314  -3.2256  -1.2853  -0.4379
     2.1747   3.0334

          k = 0.0417 0.5052 0.0000 ( 20148 PWs)   bands (ev):

   -23.5521 -23.5337 -23.5050 -23.4030 -23.3981 -23.2957 -23.2937 -23.2656
   -23.1645 -23.1031  -9.9575  -8.1148  -3.6862  -3.1099  -1.4376  -0.5023
     2.3303   3.1202

          k = 0.0417 0.5533 0.0000 ( 20150 PWs)   bands (ev):

   -23.5525 -23.5314 -23.5085 -23.4009 -23.3993 -23.2963 -23.2951 -23.2619
   -23.1664 -23.1017  -9.8326  -8.2886  -3.7147  -3.0373  -1.5281  -0.5364
     2.4362   3.2192

          k = 0.0833 0.1443 0.0000 ( 20061 PWs)   bands (ev):

   -23.5353 -23.5346 -23.4607 -23.4381 -23.4153 -23.3495 -23.2445 -23.2425
   -23.1578 -23.1453 -11.1971  -5.6272  -3.4788  -2.7807  -0.6056  -0.0905
     0.8983   1.7826

          k = 0.0833 0.1925 0.0000 ( 20087 PWs)   bands (ev):

   -23.5391 -23.5367 -23.4656 -23.4337 -23.4081 -23.3419 -23.2532 -23.2508
   -23.1565 -23.1369 -11.0957  -5.8742  -3.6008  -2.9677  -0.3500  -0.1320
     0.9341   2.2347

          k = 0.0833 0.2406 0.0000 ( 20121 PWs)   bands (ev):

   -23.5431 -23.5383 -23.4712 -23.4286 -23.4014 -23.3328 -23.2618 -23.2593
   -23.1562 -23.1284 -10.9667  -6.1923  -3.6420  -3.1572  -0.3478  -0.0972
     1.1300   2.2440

          k = 0.0833 0.2887 0.0000 ( 20106 PWs)   bands (ev):

   -23.5467 -23.5391 -23.4775 -23.4232 -23.3958 -23.3227 -23.2699 -23.2671
   -23.1572 -23.1203 -10.8114  -6.5565  -3.6222  -3.3266  -0.5101  -0.0596
     1.4321   2.3298

          k = 0.0833 0.3368 0.0000 ( 20114 PWs)   bands (ev):

   -23.5499 -23.5389 -23.4840 -23.4180 -23.3919 -23.3126 -23.2772 -23.2730
   -23.1594 -23.1131 -10.6321  -6.9413  -3.6092  -3.4170  -0.7151  -0.0750
     1.7212   2.4803

          k = 0.0833 0.3849 0.0000 ( 20126 PWs)   bands (ev):

   -23.5524 -23.5377 -23.4906 -23.4131 -23.3898 -23.3042 -23.2836 -23.2756
   -23.1627 -23.1068 -10.4331  -7.3251  -3.6956  -3.3468  -0.9359  -0.1210
     1.9405   2.6391

          k = 0.0833 0.4330 0.0000 ( 20149 PWs)   bands (ev):

   -23.5543 -23.5357 -23.4971 -23.4085 -23.3895 -23.2997 -23.2888 -23.2733
   -23.1668 -23.1018 -10.2220  -7.6888  -3.7956  -3.2149  -1.1559  -0.1773
     2.1169   2.7381

          k = 0.0833 0.4811 0.0000 ( 20151 PWs)   bands (ev):

   -23.5556 -23.5330 -23.5030 -23.4044 -23.3906 -23.2985 -23.2927 -23.2677
   -23.1710 -23.0981 -10.0151  -8.0090  -3.8726  -3.0757  -1.3550  -0.2281
     2.2634   2.8244

          k = 0.0833 0.5292 0.0000 ( 20157 PWs)   bands (ev):

   -23.5564 -23.5303 -23.5075 -23.4009 -23.3925 -23.2982 -23.2953 -23.2626
   -23.1742 -23.0958  -9.8469  -8.2467  -3.9200  -2.9640  -1.5026  -0.2625
     2.3569   2.9576

          k = 0.0833 0.5774 0.0000 ( 20154 PWs)   bands (ev):

   -23.5566 -23.5291 -23.5094 -23.3991 -23.3939 -23.2979 -23.2966 -23.2607
   -23.1755 -23.0951  -9.7776  -8.3394  -3.9360  -2.9196  -1.5590  -0.2746
     2.3861   3.0790

          k = 0.1250 0.2165 0.0000 ( 20099 PWs)   bands (ev):

   -23.5432 -23.5379 -23.4704 -23.4301 -23.4002 -23.3345 -23.2611 -23.2582
   -23.1575 -23.1281 -10.9808  -6.1532  -3.6274  -3.1898  -0.2305  -0.0498
     0.9357   2.2531

          k = 0.1250 0.2646 0.0000 ( 20119 PWs)   bands (ev):

   -23.5474 -23.5384 -23.4761 -23.4258 -23.3926 -23.3263 -23.2687 -23.2656
   -23.1596 -23.1193 -10.8389  -6.4826  -3.6000  -3.4058  -0.3743   0.1449
     1.0947   2.3049

          k = 0.1250 0.3127 0.0000 ( 20122 PWs)   bands (ev):

   -23.5513 -23.5380 -23.4824 -23.4209 -23.3863 -23.3180 -23.2757 -23.2717
   -23.1629 -23.1111 -10.6718  -6.8413  -3.6444  -3.4823  -0.5686   0.2169
     1.4042   2.3734

          k = 0.1250 0.3608 0.0000 ( 20112 PWs)   bands (ev):

   -23.5547 -23.5368 -23.4889 -23.4158 -23.3819 -23.3107 -23.2820 -23.2750
   -23.1674 -23.1037 -10.4822  -7.2102  -3.8115  -3.3707  -0.7936   0.2206
     1.7501   2.4402

          k = 0.1250 0.4090 0.0000 ( 20146 PWs)   bands (ev):

   -23.5574 -23.5348 -23.4952 -23.4107 -23.3799 -23.3059 -23.2874 -23.2741
   -23.1727 -23.0975 -10.2756  -7.5719  -3.9556  -3.2237  -1.0306   0.1970
     2.0401   2.4649

          k = 0.1250 0.4571 0.0000 ( 20145 PWs)   bands (ev):

   -23.5595 -23.5322 -23.5012 -23.4057 -23.3802 -23.3036 -23.2918 -23.2694
   -23.1783 -23.0926 -10.0624  -7.9077  -4.0659  -3.0645  -1.2604   0.1658
     2.2176   2.5252

          k = 0.1250 0.5052 0.0000 ( 20141 PWs)   bands (ev):

   -23.5608 -23.5294 -23.5063 -23.4012 -23.3821 -23.3023 -23.2954 -23.2637
   -23.1834 -23.0893  -9.8657  -8.1888  -4.1401  -2.9174  -1.4562   0.1389
     2.2547   2.7132

          k = 0.1250 0.5533 0.0000 ( 20145 PWs)   bands (ev):

   -23.5615 -23.5273 -23.5096 -23.3979 -23.3842 -23.3008 -23.2982 -23.2600
   -23.1864 -23.0876  -9.7345  -8.3630  -4.1774  -2.8218  -1.5768   0.1237
     2.2502   2.9302

          k = 0.1667 0.2887 0.0000 ( 20113 PWs)   bands (ev):

   -23.5518 -23.5377 -23.4818 -23.4220 -23.3839 -23.3202 -23.2752 -23.2712
   -23.1643 -23.1103 -10.6850  -6.8059  -3.6556  -3.5107  -0.5216   0.4345
     1.1621   2.3774

          k = 0.1667 0.3368 0.0000 ( 20110 PWs)   bands (ev):

   -23.5559 -23.5363 -23.4879 -23.4173 -23.3765 -23.3154 -23.2812 -23.2746
   -23.1701 -23.1019 -10.5069  -7.1471  -3.8789  -3.3882  -0.7193   0.5922
     1.4164   2.4431

          k = 0.1667 0.3849 0.0000 ( 20115 PWs)   bands (ev):

   -23.5595 -23.5343 -23.4941 -23.4121 -23.3712 -23.3124 -23.2865 -23.2743
   -23.1769 -23.0945 -10.3083  -7.4923  -4.0687  -3.2369  -0.9452   0.6330
     1.7907   2.3696

          k = 0.1667 0.4330 0.0000 ( 20139 PWs)   bands (ev):

   -23.5625 -23.5318 -23.5000 -23.4067 -23.3690 -23.3105 -23.2913 -23.2704
   -23.1842 -23.0884 -10.0958  -7.8267  -4.2191  -3.0677  -1.1802   0.6325
     2.1584   2.2597

          k = 0.1667 0.4811 0.0000 ( 20145 PWs)   bands (ev):

   -23.5646 -23.5289 -23.5052 -23.4015 -23.3696 -23.3086 -23.2955 -23.2648
   -23.1913 -23.0839  -9.8836  -8.1299  -4.3274  -2.8967  -1.4025   0.6214
     2.1496   2.5045

          k = 0.1667 0.5292 0.0000 ( 20147 PWs)   bands (ev):

   -23.5660 -23.5263 -23.5093 -23.3972 -23.3717 -23.3060 -23.2993 -23.2598
   -23.1968 -23.0811  -9.7053  -8.3644  -4.3926  -2.7545  -1.5770   0.6113
     2.0881   2.7976

          k = 0.1667 0.5774 0.0000 ( 20135 PWs)   bands (ev):

   -23.5664 -23.5250 -23.5111 -23.3953 -23.3729 -23.3035 -23.3022 -23.2577
   -23.1990 -23.0802  -9.6288  -8.4598  -4.4144  -2.6948  -1.6478   0.6075
     2.0670   2.9640

          k = 0.2083 0.3608 0.0000 ( 20119 PWs)   bands (ev):

   -23.5603 -23.5341 -23.4937 -23.4126 -23.3674 -23.3154 -23.2862 -23.2743
   -23.1784 -23.0934 -10.3193  -7.4639  -4.1095  -3.2425  -0.9152   0.9252
     1.5375   2.4124

          k = 0.2083 0.4090 0.0000 ( 20133 PWs)   bands (ev):

   -23.5641 -23.5316 -23.4993 -23.4072 -23.3606 -23.3166 -23.2910 -23.2709
   -23.1874 -23.0861 -10.1130  -7.7812  -4.3033  -3.0725  -1.1348   1.0820
     1.8545   2.2406

          k = 0.2083 0.4571 0.0000 ( 20137 PWs)   bands (ev):

   -23.5672 -23.5287 -23.5045 -23.4017 -23.3575 -23.3164 -23.2955 -23.2656
   -23.1966 -23.0803  -9.8963  -8.0858  -4.4521  -2.8900  -1.3600   1.1280
     2.0666   2.2795

          k = 0.2083 0.5052 0.0000 ( 20163 PWs)   bands (ev):

   -23.5693 -23.5258 -23.5089 -23.3967 -23.3580 -23.3137 -23.3000 -23.2599
   -23.2048 -23.0763  -9.6884  -8.3545  -4.5524  -2.7150  -1.5663   1.1434
     1.9595   2.6501

          k = 0.2083 0.5533 0.0000 ( 20157 PWs)   bands (ev):

   -23.5704 -23.5236 -23.5118 -23.3934 -23.3596 -23.3094 -23.3046 -23.2558
   -23.2101 -23.0743  -9.5401  -8.5339  -4.6027  -2.5919  -1.7059   1.1493
     1.9002   2.9387

          k = 0.2500 0.4330 0.0000 ( 20149 PWs)   bands (ev):

   -23.5681 -23.5286 -23.5042 -23.4018 -23.3514 -23.3210 -23.2955 -23.2659
   -23.1984 -23.0791  -9.9008  -8.0695  -4.4959  -2.8888  -1.3440   1.4473
     2.0225   2.0845

          k = 0.2500 0.4811 0.0000 ( 20153 PWs)   bands (ev):

   -23.5711 -23.5257 -23.5086 -23.3964 -23.3462 -23.3222 -23.3004 -23.2600
   -23.2090 -23.0739  -9.6810  -8.3455  -4.6374  -2.6973  -1.5565   1.6073
     1.9385   2.3918

          k = 0.2500 0.5292 0.0000 ( 20133 PWs)   bands (ev):

   -23.5730 -23.5230 -23.5121 -23.3922 -23.3459 -23.3181 -23.3058 -23.2543
   -23.2178 -23.0706  -9.4799  -8.5812  -4.7236  -2.5233  -1.7444   1.6735
     1.8251   2.7954

          k = 0.2500 0.5774 0.0000 ( 20123 PWs)   bands (ev):

   -23.5736 -23.5216 -23.5138 -23.3906 -23.3466 -23.3121 -23.3117 -23.2516
   -23.2217 -23.0695  -9.3815  -8.6913  -4.7525  -2.4395  -1.8330   1.7194
     1.7575   3.0099

          k = 0.2917 0.5052 0.0000 ( 20137 PWs)   bands (ev):

   -23.5739 -23.5228 -23.5122 -23.3918 -23.3366 -23.3256 -23.3062 -23.2537
   -23.2206 -23.0694  -9.4584  -8.5977  -4.7652  -2.4990  -1.7579   1.7250
     2.1232   2.5573

          k = 0.2917 0.5533 0.0000 ( 20132 PWs)   bands (ev):

   -23.5753 -23.5203 -23.5150 -23.3891 -23.3339 -23.3212 -23.3133 -23.2477
   -23.2296 -23.0670  -9.2615  -8.8092  -4.8303  -2.3261  -1.9326   1.6818
     2.2594   2.8529

          k = 0.3333 0.5774 0.0000 ( 20133 PWs)   bands (ev):

   -23.5761 -23.5177 -23.5177 -23.3879 -23.3241 -23.3220 -23.3218 -23.2396
   -23.2396 -23.0658  -9.0369  -9.0368  -4.8665  -2.1277  -2.1277   1.6487
     2.6887   2.6887

     the Fermi energy is    -2.1446 ev

!    total energy              =    -326.41863817 Ry
     estimated scf accuracy    <       0.00000081 Ry
     smearing contrib. (-TS)   =       0.00018044 Ry
     internal energy E=F+TS    =    -326.41881861 Ry

     The total energy is F=E-TS. E is the sum of the following terms:
     one-electron contribution =    -856.46430543 Ry
     hartree contribution      =     435.93243042 Ry
     xc contribution           =     -95.00840893 Ry
     ewald contribution        =     189.12146532 Ry

     convergence has been achieved in   7 iterations

     Writing output data file ../tmp/stanene.save/

     init_run     :      6.29s CPU      6.58s WALL (       1 calls)
     electrons    :    123.74s CPU    128.37s WALL (       1 calls)

     Called by init_run:
     wfcinit      :      5.05s CPU      5.23s WALL (       1 calls)
     potinit      :      0.38s CPU      0.40s WALL (       1 calls)
     hinit0       :      0.39s CPU      0.40s WALL (       1 calls)

     Called by electrons:
     c_bands      :    106.33s CPU    109.24s WALL (       7 calls)
     sum_band     :     13.84s CPU     14.93s WALL (       7 calls)
     v_of_rho     :      1.30s CPU      1.40s WALL (       8 calls)
     newd         :      2.39s CPU      2.95s WALL (       8 calls)
     mix_rho      :      0.18s CPU      0.20s WALL (       7 calls)

     Called by c_bands:
     init_us_2    :      0.86s CPU      0.88s WALL (     915 calls)
     cegterg      :    102.92s CPU    105.82s WALL (     427 calls)

     Called by *egterg:
     cdiaghg      :      1.61s CPU      1.63s WALL (    2304 calls)
     h_psi        :     65.01s CPU     67.90s WALL (    2365 calls)
     s_psi        :      4.50s CPU      4.53s WALL (    2365 calls)
     g_psi        :      0.41s CPU      0.41s WALL (    1877 calls)

     Called by h_psi:
     h_psi:calbec :      8.21s CPU      8.44s WALL (    2365 calls)
     vloc_psi     :     51.93s CPU     54.55s WALL (    2365 calls)
     add_vuspsi   :      4.61s CPU      4.66s WALL (    2365 calls)

     General routines
     calbec       :     10.61s CPU     10.94s WALL (    2792 calls)
     fft          :      1.41s CPU      1.49s WALL (     102 calls)
     ffts         :      0.04s CPU      0.04s WALL (      15 calls)
     fftw         :     54.79s CPU     57.53s WALL (   54306 calls)
     interpolate  :      0.12s CPU      0.13s WALL (       8 calls)

     Parallel routines
     fft_scatt_xy :      4.76s CPU      5.13s WALL (   54423 calls)
     fft_scatt_yz :     30.81s CPU     31.95s WALL (   54423 calls)

     PWSCF        :   2m10.30s CPU   2m15.45s WALL


   This run was terminated on:  23: 8:50  23Jan2024            

=------------------------------------------------------------------------------=
   JOB DONE.
=------------------------------------------------------------------------------=
