
     Program PWSCF v.6.7MaX starts on 23Jan2024 at 23: 2:13 

     This program is part of the open-source Quantum ESPRESSO suite
     for quantum simulation of materials; please cite
         "P. Giannozzi et al., J. Phys.:Condens. Matter 21 395502 (2009);
         "P. Giannozzi et al., J. Phys.:Condens. Matter 29 465901 (2017);
          URL http://www.quantum-espresso.org", 
     in publications or presentations arising from this work. More details at
     http://www.quantum-espresso.org/quote

     Parallel version (MPI), running on     6 processors

     MPI processes distributed on     1 nodes
     R & G space division:  proc/nbgrp/npool/nimage =       6
     Waiting for input...
     Reading input from standard input

     Current dimensions of program PWSCF are:
     Max number of different atomic species (ntypx) = 10
     Max number of k-points (npk) =  40000
     Max angular momentum in pseudopotentials (lmaxx) =  3

     Subspace diagonalization in iterative solution of the eigenvalue problem:
     one sub-group per band group will be used
     scalapack distributed-memory algorithm (size of sub-group:  2*  2 procs)


     Parallelization info
     --------------------
     sticks:   dense  smooth     PW     G-vecs:    dense   smooth      PW
     Min         431     214     61                75909    26818    4015
     Max         432     215     62                75924    26841    4025
     Sum        2587    1285    367               455489   160939   24117



     bravais-lattice index     =            4
     lattice parameter (alat)  =       8.8506  a.u.
     unit-cell volume          =    2563.9136 (a.u.)^3
     number of atoms/cell      =            2
     number of atomic types    =            1
     number of electrons       =        28.00
     number of Kohn-Sham states=           18
     kinetic-energy cutoff     =      60.0000  Ry
     charge density cutoff     =     480.0000  Ry
     scf convergence threshold =      1.0E-06
     mixing beta               =       0.7000
     number of iterations used =            8  plain     mixing
     Exchange-correlation= SLA  PW   PBE  PBE
                           (   1   4   3   4   0   0   0)

     celldm(1)=   8.850584  celldm(2)=   0.000000  celldm(3)=   4.270286
     celldm(4)=   0.000000  celldm(5)=   0.000000  celldm(6)=   0.000000

     crystal axes: (cart. coord. in units of alat)
               a(1) = (   1.000000   0.000000   0.000000 )  
               a(2) = (  -0.500000   0.866025   0.000000 )  
               a(3) = (   0.000000   0.000000   4.270286 )  

     reciprocal axes: (cart. coord. in units 2 pi/alat)
               b(1) = (  1.000000  0.577350 -0.000000 )  
               b(2) = (  0.000000  1.154701  0.000000 )  
               b(3) = (  0.000000 -0.000000  0.234176 )  


     PseudoPot. # 1 for Sn read from file:
     ../pseudo/Sn_pbe_v1.uspp.F.UPF
     MD5 check sum: 4cf58ce39ec5d5d420df3dd08604eb00
     Pseudo is Ultrasoft + core correction, Zval = 14.0
     Generated by new atomic code, or converted to UPF format
     Using radial grid of  891 points,  6 beta functions with: 
                l(1) =   0
                l(2) =   0
                l(3) =   1
                l(4) =   1
                l(5) =   2
                l(6) =   2
     Q(r) pseudized with  6 coefficients,  rinner =    1.200   1.200   1.200
                                                       1.200   1.200

     atomic species   valence    mass     pseudopotential
        Sn            14.00   118.71000     Sn( 1.00)

      6 Sym. Ops. (no inversion) found



   Cartesian axes

     site n.     atom                  positions (alat units)
         1           Sn  tau(   1) = (   0.0000000   0.5773503   2.1351428  )
         2           Sn  tau(   2) = (   0.5000000   0.2886751   1.9552503  )

     number of k points=    61  Methfessel-Paxton smearing, width (Ry)=  0.0050
                       cart. coord. in units 2pi/alat
        k(    1) = (   0.0000000   0.0000000   0.0000000), wk =   0.0034722
        k(    2) = (   0.0000000   0.0481125   0.0000000), wk =   0.0208333
        k(    3) = (   0.0000000   0.0962250   0.0000000), wk =   0.0208333
        k(    4) = (   0.0000000   0.1443376   0.0000000), wk =   0.0208333
        k(    5) = (   0.0000000   0.1924501   0.0000000), wk =   0.0208333
        k(    6) = (   0.0000000   0.2405626   0.0000000), wk =   0.0208333
        k(    7) = (   0.0000000   0.2886751   0.0000000), wk =   0.0208333
        k(    8) = (   0.0000000   0.3367877   0.0000000), wk =   0.0208333
        k(    9) = (   0.0000000   0.3849002   0.0000000), wk =   0.0208333
        k(   10) = (   0.0000000   0.4330127   0.0000000), wk =   0.0208333
        k(   11) = (   0.0000000   0.4811252   0.0000000), wk =   0.0208333
        k(   12) = (   0.0000000   0.5292377   0.0000000), wk =   0.0208333
        k(   13) = (   0.0000000  -0.5773503   0.0000000), wk =   0.0104167
        k(   14) = (   0.0416667   0.0721688   0.0000000), wk =   0.0208333
        k(   15) = (   0.0416667   0.1202813   0.0000000), wk =   0.0416667
        k(   16) = (   0.0416667   0.1683938   0.0000000), wk =   0.0416667
        k(   17) = (   0.0416667   0.2165064   0.0000000), wk =   0.0416667
        k(   18) = (   0.0416667   0.2646189   0.0000000), wk =   0.0416667
        k(   19) = (   0.0416667   0.3127314   0.0000000), wk =   0.0416667
        k(   20) = (   0.0416667   0.3608439   0.0000000), wk =   0.0416667
        k(   21) = (   0.0416667   0.4089564   0.0000000), wk =   0.0416667
        k(   22) = (   0.0416667   0.4570690   0.0000000), wk =   0.0416667
        k(   23) = (   0.0416667   0.5051815   0.0000000), wk =   0.0416667
        k(   24) = (   0.0416667   0.5532940   0.0000000), wk =   0.0416667
        k(   25) = (   0.0833333   0.1443376   0.0000000), wk =   0.0208333
        k(   26) = (   0.0833333   0.1924501   0.0000000), wk =   0.0416667
        k(   27) = (   0.0833333   0.2405626   0.0000000), wk =   0.0416667
        k(   28) = (   0.0833333   0.2886751   0.0000000), wk =   0.0416667
        k(   29) = (   0.0833333   0.3367877   0.0000000), wk =   0.0416667
        k(   30) = (   0.0833333   0.3849002   0.0000000), wk =   0.0416667
        k(   31) = (   0.0833333   0.4330127   0.0000000), wk =   0.0416667
        k(   32) = (   0.0833333   0.4811252   0.0000000), wk =   0.0416667
        k(   33) = (   0.0833333   0.5292377   0.0000000), wk =   0.0416667
        k(   34) = (   0.0833333   0.5773503   0.0000000), wk =   0.0208333
        k(   35) = (   0.1250000   0.2165064   0.0000000), wk =   0.0208333
        k(   36) = (   0.1250000   0.2646189   0.0000000), wk =   0.0416667
        k(   37) = (   0.1250000   0.3127314   0.0000000), wk =   0.0416667
        k(   38) = (   0.1250000   0.3608439   0.0000000), wk =   0.0416667
        k(   39) = (   0.1250000   0.4089564   0.0000000), wk =   0.0416667
        k(   40) = (   0.1250000   0.4570690   0.0000000), wk =   0.0416667
        k(   41) = (   0.1250000   0.5051815   0.0000000), wk =   0.0416667
        k(   42) = (   0.1250000   0.5532940   0.0000000), wk =   0.0416667
        k(   43) = (   0.1666667   0.2886751   0.0000000), wk =   0.0208333
        k(   44) = (   0.1666667   0.3367877   0.0000000), wk =   0.0416667
        k(   45) = (   0.1666667   0.3849002   0.0000000), wk =   0.0416667
        k(   46) = (   0.1666667   0.4330127   0.0000000), wk =   0.0416667
        k(   47) = (   0.1666667   0.4811252   0.0000000), wk =   0.0416667
        k(   48) = (   0.1666667   0.5292377   0.0000000), wk =   0.0416667
        k(   49) = (   0.1666667   0.5773503   0.0000000), wk =   0.0208333
        k(   50) = (   0.2083333   0.3608439   0.0000000), wk =   0.0208333
        k(   51) = (   0.2083333   0.4089564   0.0000000), wk =   0.0416667
        k(   52) = (   0.2083333   0.4570690   0.0000000), wk =   0.0416667
        k(   53) = (   0.2083333   0.5051815   0.0000000), wk =   0.0416667
        k(   54) = (   0.2083333   0.5532940   0.0000000), wk =   0.0416667
        k(   55) = (   0.2500000   0.4330127   0.0000000), wk =   0.0208333
        k(   56) = (   0.2500000   0.4811252   0.0000000), wk =   0.0416667
        k(   57) = (   0.2500000   0.5292377   0.0000000), wk =   0.0416667
        k(   58) = (   0.2500000   0.5773503   0.0000000), wk =   0.0208333
        k(   59) = (   0.2916667   0.5051815   0.0000000), wk =   0.0208333
        k(   60) = (   0.2916667   0.5532940   0.0000000), wk =   0.0416667
        k(   61) = (   0.3333333   0.5773503   0.0000000), wk =   0.0069444

     Dense  grid:   455489 G-vectors     FFT dimensions: (  64,  64, 270)

     Smooth grid:   160939 G-vectors     FFT dimensions: (  45,  45, 192)

     Estimated max dynamical RAM per process >     322.30 MB

     Estimated total dynamical RAM >       1.89 GB

     Initial potential from superposition of free atoms

     starting charge   25.99991, renormalised to   28.00000

     negative rho (up, down):  5.949E-04 0.000E+00
     Starting wfcs are   18 randomized atomic wfcs

     total cpu time spent up to now is        6.6 secs

     Self-consistent Calculation

     iteration #  1     ecut=    60.00 Ry     beta= 0.70
     Davidson diagonalization with overlap
     ethr =  1.00E-02,  avg # of iterations =  8.8

     negative rho (up, down):  2.951E-05 0.000E+00

     total cpu time spent up to now is       27.1 secs

     total energy              =    -325.45635072 Ry
     estimated scf accuracy    <       2.46957305 Ry

     iteration #  2     ecut=    60.00 Ry     beta= 0.70
     Davidson diagonalization with overlap
     ethr =  8.82E-03,  avg # of iterations =  2.1

     negative rho (up, down):  4.274E-05 0.000E+00

     total cpu time spent up to now is       43.6 secs

     total energy              =    -326.35852945 Ry
     estimated scf accuracy    <       0.38287248 Ry

     iteration #  3     ecut=    60.00 Ry     beta= 0.70
     Davidson diagonalization with overlap
     ethr =  1.37E-03,  avg # of iterations =  2.2

     negative rho (up, down):  6.401E-05 0.000E+00

     total cpu time spent up to now is       60.2 secs

     total energy              =    -326.41657098 Ry
     estimated scf accuracy    <       0.00628277 Ry

     iteration #  4     ecut=    60.00 Ry     beta= 0.70
     Davidson diagonalization with overlap
     c_bands:  1 eigenvalues not converged
     ethr =  2.24E-05,  avg # of iterations =  8.4

     negative rho (up, down):  8.174E-05 0.000E+00

     total cpu time spent up to now is       81.3 secs

     total energy              =    -326.41862528 Ry
     estimated scf accuracy    <       0.00036111 Ry

     iteration #  5     ecut=    60.00 Ry     beta= 0.70
     Davidson diagonalization with overlap
     ethr =  1.29E-06,  avg # of iterations =  5.1

     negative rho (up, down):  8.309E-05 0.000E+00

     total cpu time spent up to now is       98.5 secs

     total energy              =    -326.41866760 Ry
     estimated scf accuracy    <       0.00003675 Ry

     iteration #  6     ecut=    60.00 Ry     beta= 0.70
     Davidson diagonalization with overlap
     ethr =  1.31E-07,  avg # of iterations =  2.2

     negative rho (up, down):  8.497E-05 0.000E+00

     total cpu time spent up to now is      113.5 secs

     total energy              =    -326.41867577 Ry
     estimated scf accuracy    <       0.00001265 Ry

     iteration #  7     ecut=    60.00 Ry     beta= 0.70
     Davidson diagonalization with overlap
     ethr =  4.52E-08,  avg # of iterations =  2.0

     negative rho (up, down):  8.563E-05 0.000E+00

     total cpu time spent up to now is      126.5 secs

     End of self-consistent calculation

          k = 0.0000 0.0000 0.0000 ( 20025 PWs)   bands (ev):

   -23.5286 -23.5286 -23.4501 -23.4501 -23.4349 -23.3650 -23.2235 -23.2235
   -23.1677 -23.1677 -11.3744  -5.2748  -2.4049  -2.4049  -1.9450  -0.0651
     1.0904   1.0904

          k = 0.0000 0.0481 0.0000 ( 20035 PWs)   bands (ev):

   -23.5295 -23.5294 -23.4517 -23.4489 -23.4327 -23.3637 -23.2260 -23.2258
   -23.1664 -23.1654 -11.3597  -5.2980  -2.6940  -2.4375  -1.6376  -0.0640
     1.0605   1.1462

          k = 0.0000 0.0962 0.0000 ( 20005 PWs)   bands (ev):

   -23.5320 -23.5315 -23.4554 -23.4456 -23.4274 -23.3600 -23.2324 -23.2319
   -23.1632 -23.1596 -11.3156  -5.3757  -3.0806  -2.5280  -1.2018  -0.0640
     1.0053   1.3056

          k = 0.0000 0.1443 0.0000 ( 20065 PWs)   bands (ev):

   -23.5352 -23.5345 -23.4601 -23.4406 -23.4210 -23.3540 -23.2410 -23.2403
   -23.1594 -23.1520 -11.2425  -5.5287  -3.3903  -2.6597  -0.8379  -0.0739
     1.0095   1.5486

          k = 0.0000 0.1925 0.0000 ( 20113 PWs)   bands (ev):

   -23.5384 -23.5378 -23.4654 -23.4346 -23.4148 -23.3457 -23.2504 -23.2496
   -23.1562 -23.1439 -11.1408  -5.7729  -3.5852  -2.8138  -0.6372  -0.0971
     1.1545   2.1787

          k = 0.0000 0.2406 0.0000 ( 20071 PWs)   bands (ev):

   -23.5412 -23.5411 -23.4712 -23.4282 -23.4096 -23.3355 -23.2599 -23.2588
   -23.1540 -23.1360 -11.0115  -6.0992  -3.6655  -2.9742  -0.6243  -0.1264
     1.4140   2.2894

          k = 0.0000 0.2887 0.0000 ( 20087 PWs)   bands (ev):

   -23.5442 -23.5427 -23.4775 -23.4220 -23.4058 -23.3240 -23.2689 -23.2670
   -23.1532 -23.1285 -10.8558  -6.4779  -3.6559  -3.1292  -0.7292  -0.1749
     1.6509   2.4646

          k = 0.0000 0.3368 0.0000 ( 20109 PWs)   bands (ev):

   -23.5468 -23.5432 -23.4840 -23.4162 -23.4035 -23.3123 -23.2771 -23.2736
   -23.1538 -23.1219 -10.6763  -6.8779  -3.5846  -3.2703  -0.8827  -0.2557
     1.8054   2.6673

          k = 0.0000 0.3849 0.0000 ( 20145 PWs)   bands (ev):

   -23.5489 -23.5423 -23.4907 -23.4111 -23.4025 -23.3021 -23.2841 -23.2771
   -23.1557 -23.1163 -10.4773  -7.2749  -3.4747  -3.3918  -1.0526  -0.3605
     1.9371   2.8824

          k = 0.0000 0.4330 0.0000 ( 20161 PWs)   bands (ev):

   -23.5505 -23.5403 -23.4972 -23.4071 -23.4025 -23.2964 -23.2898 -23.2756
   -23.1584 -23.1118 -10.2668  -7.6483  -3.4896  -3.3459  -1.2232  -0.4684
     2.0855   3.1009

          k = 0.0000 0.4811 0.0000 ( 20157 PWs)   bands (ev):

   -23.5516 -23.5375 -23.5034 -23.4041 -23.4029 -23.2954 -23.2939 -23.2699
   -23.1614 -23.1085 -10.0616  -7.9740  -3.5612  -3.2196  -1.3781  -0.5586
     2.2502   3.2802

          k = 0.0000 0.5292 0.0000 ( 20142 PWs)   bands (ev):

   -23.5522 -23.5347 -23.5081 -23.4034 -23.4023 -23.2965 -23.2958 -23.2647
   -23.1638 -23.1065  -9.8963  -8.2131  -3.6048  -3.1230  -1.4921  -0.6172
     2.4002   3.3371

          k = 0.0000-0.5774 0.0000 ( 20152 PWs)   bands (ev):

   -23.5524 -23.5334 -23.5101 -23.4036 -23.4017 -23.2973 -23.2961 -23.2628
   -23.1647 -23.1059  -9.8288  -8.3054  -3.6195  -3.0859  -1.5352  -0.6373
     2.4676   3.3874

          k = 0.0417 0.0722 0.0000 ( 20017 PWs)   bands (ev):

   -23.5311 -23.5309 -23.4542 -23.4468 -23.4289 -23.3613 -23.2305 -23.2299
   -23.1643 -23.1613 -11.3303  -5.3484  -2.9800  -2.5033  -1.3119  -0.0635
     1.0083   1.2625

          k = 0.0417 0.1203 0.0000 ( 20039 PWs)   bands (ev):

   -23.5339 -23.5335 -23.4581 -23.4430 -23.4230 -23.3564 -23.2381 -23.2369
   -23.1612 -23.1544 -11.2717  -5.4642  -3.2874  -2.6243  -0.9305  -0.0694
     0.9547   1.4841

          k = 0.0417 0.1684 0.0000 ( 20081 PWs)   bands (ev):

   -23.5373 -23.5365 -23.4630 -23.4378 -23.4164 -23.3494 -23.2470 -23.2455
   -23.1582 -23.1464 -11.1843  -5.6644  -3.5154  -2.7783  -0.6350  -0.0905
     0.9934   1.7791

          k = 0.0417 0.2165 0.0000 ( 20075 PWs)   bands (ev):

   -23.5409 -23.5391 -23.4685 -23.4320 -23.4102 -23.3403 -23.2563 -23.2547
   -23.1559 -23.1381 -11.0687  -5.9520  -3.6365  -2.9453  -0.5216  -0.1163
     1.1836   2.0951

          k = 0.0417 0.2646 0.0000 ( 20107 PWs)   bands (ev):

   -23.5443 -23.5411 -23.4746 -23.4260 -23.4051 -23.3297 -23.2653 -23.2634
   -23.1549 -23.1302 -10.9260  -6.3057  -3.6621  -3.1098  -0.5849  -0.1388
     1.4622   2.2910

          k = 0.0417 0.3127 0.0000 ( 20105 PWs)   bands (ev):

   -23.5472 -23.5420 -23.4810 -23.4202 -23.4015 -23.3183 -23.2736 -23.2708
   -23.1553 -23.1230 -10.7582  -6.6947  -3.6200  -3.2587  -0.7342  -0.1857
     1.6998   2.4970

          k = 0.0417 0.3608 0.0000 ( 20127 PWs)   bands (ev):

   -23.5496 -23.5417 -23.4876 -23.4150 -23.3994 -23.3075 -23.2811 -23.2759
   -23.1570 -23.1167 -10.5682  -7.0923  -3.5505  -3.3683  -0.9148  -0.2625
     1.8658   2.7216

          k = 0.0417 0.4090 0.0000 ( 20135 PWs)   bands (ev):

   -23.5515 -23.5403 -23.4943 -23.4106 -23.3986 -23.2996 -23.2872 -23.2769
   -23.1597 -23.1115 -10.3620  -7.4772  -3.5629  -3.3442  -1.1041  -0.3537
     2.0152   2.9061

          k = 0.0417 0.4571 0.0000 ( 20146 PWs)   bands (ev):

   -23.5528 -23.5379 -23.5006 -23.4071 -23.3987 -23.2969 -23.2920 -23.2727
   -23.1630 -23.1074 -10.1510  -7.8285  -3.6331  -3.2266  -1.2862  -0.4394
     2.1744   3.0327

          k = 0.0417 0.5052 0.0000 ( 20148 PWs)   bands (ev):

   -23.5536 -23.5350 -23.5062 -23.4043 -23.3995 -23.2970 -23.2950 -23.2668
   -23.1660 -23.1047  -9.9592  -8.1164  -3.6879  -3.1109  -1.4384  -0.5039
     2.3299   3.1199

          k = 0.0417 0.5533 0.0000 ( 20150 PWs)   bands (ev):

   -23.5541 -23.5328 -23.5097 -23.4022 -23.4007 -23.2977 -23.2964 -23.2630
   -23.1679 -23.1033  -9.8342  -8.2902  -3.7165  -3.0383  -1.5289  -0.5380
     2.4357   3.2185

          k = 0.0833 0.1443 0.0000 ( 20061 PWs)   bands (ev):

   -23.5368 -23.5360 -23.4619 -23.4394 -23.4166 -23.3507 -23.2459 -23.2439
   -23.1593 -23.1469 -11.1988  -5.6283  -3.4802  -2.7825  -0.6073  -0.0910
     0.8969   1.7810

          k = 0.0833 0.1925 0.0000 ( 20087 PWs)   bands (ev):

   -23.5407 -23.5382 -23.4668 -23.4350 -23.4095 -23.3431 -23.2546 -23.2522
   -23.1580 -23.1385 -11.0974  -5.8754  -3.6021  -2.9695  -0.3516  -0.1326
     0.9328   2.2349

          k = 0.0833 0.2406 0.0000 ( 20121 PWs)   bands (ev):

   -23.5446 -23.5398 -23.4724 -23.4299 -23.4027 -23.3340 -23.2631 -23.2606
   -23.1578 -23.1300 -10.9684  -6.1937  -3.6432  -3.1590  -0.3490  -0.0983
     1.1288   2.2435

          k = 0.0833 0.2887 0.0000 ( 20106 PWs)   bands (ev):

   -23.5483 -23.5405 -23.4787 -23.4246 -23.3972 -23.3240 -23.2712 -23.2684
   -23.1587 -23.1219 -10.8131  -6.5580  -3.6233  -3.3284  -0.5111  -0.0609
     1.4311   2.3292

          k = 0.0833 0.3368 0.0000 ( 20114 PWs)   bands (ev):

   -23.5514 -23.5403 -23.4852 -23.4193 -23.3933 -23.3139 -23.2786 -23.2743
   -23.1609 -23.1147 -10.6338  -6.9428  -3.6105  -3.4184  -0.7160  -0.0763
     1.7205   2.4798

          k = 0.0833 0.3849 0.0000 ( 20126 PWs)   bands (ev):

   -23.5540 -23.5391 -23.4918 -23.4144 -23.3912 -23.3055 -23.2850 -23.2768
   -23.1643 -23.1084 -10.4347  -7.3266  -3.6973  -3.3479  -0.9368  -0.1224
     1.9401   2.6381

          k = 0.0833 0.4330 0.0000 ( 20149 PWs)   bands (ev):

   -23.5559 -23.5370 -23.4983 -23.4099 -23.3909 -23.3010 -23.2901 -23.2745
   -23.1684 -23.1034 -10.2237  -7.6904  -3.7973  -3.2159  -1.1568  -0.1788
     2.1165   2.7376

          k = 0.0833 0.4811 0.0000 ( 20151 PWs)   bands (ev):

   -23.5572 -23.5343 -23.5042 -23.4058 -23.3920 -23.2999 -23.2940 -23.2689
   -23.1725 -23.0997 -10.0167  -8.0106  -3.8743  -3.0767  -1.3559  -0.2296
     2.2630   2.8237

          k = 0.0833 0.5292 0.0000 ( 20157 PWs)   bands (ev):

   -23.5580 -23.5317 -23.5088 -23.4022 -23.3940 -23.2996 -23.2966 -23.2638
   -23.1758 -23.0975  -9.8485  -8.2483  -3.9217  -2.9650  -1.5034  -0.2641
     2.3564   2.9571

          k = 0.0833 0.5774 0.0000 ( 20154 PWs)   bands (ev):

   -23.5582 -23.5304 -23.5107 -23.4004 -23.3954 -23.2993 -23.2978 -23.2619
   -23.1770 -23.0967  -9.7792  -8.3411  -3.9377  -2.9206  -1.5598  -0.2762
     2.3856   3.0784

          k = 0.1250 0.2165 0.0000 ( 20099 PWs)   bands (ev):

   -23.5447 -23.5393 -23.4716 -23.4315 -23.4016 -23.3357 -23.2624 -23.2596
   -23.1590 -23.1297 -10.9825  -6.1546  -3.6285  -3.1915  -0.2312  -0.0515
     0.9345   2.2529

          k = 0.1250 0.2646 0.0000 ( 20119 PWs)   bands (ev):

   -23.5489 -23.5398 -23.4773 -23.4271 -23.3940 -23.3276 -23.2700 -23.2670
   -23.1611 -23.1209 -10.8406  -6.4840  -3.6011  -3.4076  -0.3750   0.1433
     1.0935   2.3044

          k = 0.1250 0.3127 0.0000 ( 20122 PWs)   bands (ev):

   -23.5528 -23.5394 -23.4836 -23.4222 -23.3877 -23.3193 -23.2771 -23.2730
   -23.1644 -23.1127 -10.6734  -6.8428  -3.6460  -3.4835  -0.5695   0.2154
     1.4032   2.3727

          k = 0.1250 0.3608 0.0000 ( 20112 PWs)   bands (ev):

   -23.5562 -23.5382 -23.4901 -23.4172 -23.3833 -23.3121 -23.2833 -23.2763
   -23.1689 -23.1053 -10.4839  -7.2117  -3.8132  -3.3717  -0.7944   0.2191
     1.7493   2.4394

          k = 0.1250 0.4090 0.0000 ( 20146 PWs)   bands (ev):

   -23.5590 -23.5362 -23.4964 -23.4120 -23.3813 -23.3073 -23.2887 -23.2753
   -23.1742 -23.0991 -10.2772  -7.5735  -3.9573  -3.2247  -1.0315   0.1954
     2.0396   2.4641

          k = 0.1250 0.4571 0.0000 ( 20145 PWs)   bands (ev):

   -23.5610 -23.5336 -23.5024 -23.4071 -23.3816 -23.3050 -23.2932 -23.2706
   -23.1798 -23.0943 -10.0640  -7.9092  -4.0676  -3.0655  -1.2612   0.1642
     2.2171   2.5244

          k = 0.1250 0.5052 0.0000 ( 20141 PWs)   bands (ev):

   -23.5624 -23.5308 -23.5075 -23.4025 -23.3835 -23.3036 -23.2967 -23.2649
   -23.1849 -23.0909  -9.8673  -8.1904  -4.1419  -2.9184  -1.4571   0.1373
     2.2541   2.7127

          k = 0.1250 0.5533 0.0000 ( 20145 PWs)   bands (ev):

   -23.5631 -23.5286 -23.5109 -23.3992 -23.3857 -23.3021 -23.2995 -23.2612
   -23.1880 -23.0893  -9.7362  -8.3646  -4.1792  -2.8227  -1.5776   0.1221
     2.2495   2.9297

          k = 0.1667 0.2887 0.0000 ( 20113 PWs)   bands (ev):

   -23.5533 -23.5391 -23.4830 -23.4233 -23.3853 -23.3216 -23.2766 -23.2725
   -23.1658 -23.1119 -10.6867  -6.8074  -3.6574  -3.5117  -0.5223   0.4328
     1.1610   2.3769

          k = 0.1667 0.3368 0.0000 ( 20110 PWs)   bands (ev):

   -23.5575 -23.5377 -23.4891 -23.4186 -23.3778 -23.3168 -23.2825 -23.2758
   -23.1716 -23.1035 -10.5086  -7.1487  -3.8806  -3.3892  -0.7201   0.5906
     1.4154   2.4424

          k = 0.1667 0.3849 0.0000 ( 20115 PWs)   bands (ev):

   -23.5611 -23.5357 -23.4953 -23.4135 -23.3726 -23.3138 -23.2878 -23.2755
   -23.1784 -23.0961 -10.3100  -7.4939  -4.0705  -3.2379  -0.9460   0.6315
     1.7898   2.3689

          k = 0.1667 0.4330 0.0000 ( 20139 PWs)   bands (ev):

   -23.5641 -23.5331 -23.5012 -23.4080 -23.3704 -23.3120 -23.2926 -23.2716
   -23.1857 -23.0900 -10.0974  -7.8282  -4.2208  -3.0686  -1.1811   0.6309
     2.1577   2.2589

          k = 0.1667 0.4811 0.0000 ( 20145 PWs)   bands (ev):

   -23.5662 -23.5302 -23.5064 -23.4028 -23.3711 -23.3100 -23.2968 -23.2660
   -23.1928 -23.0855  -9.8853  -8.1314  -4.3291  -2.8976  -1.4033   0.6198
     2.1489   2.5040

          k = 0.1667 0.5292 0.0000 ( 20147 PWs)   bands (ev):

   -23.5675 -23.5276 -23.5105 -23.3985 -23.3732 -23.3074 -23.3006 -23.2610
   -23.1983 -23.0827  -9.7069  -8.3660  -4.3943  -2.7554  -1.5779   0.6097
     2.0874   2.7972

          k = 0.1667 0.5774 0.0000 ( 20135 PWs)   bands (ev):

   -23.5680 -23.5263 -23.5123 -23.3966 -23.3744 -23.3048 -23.3035 -23.2589
   -23.2005 -23.0818  -9.6305  -8.4615  -4.4161  -2.6957  -1.6486   0.6058
     2.0662   2.9635

          k = 0.2083 0.3608 0.0000 ( 20119 PWs)   bands (ev):

   -23.5619 -23.5355 -23.4949 -23.4139 -23.3688 -23.3169 -23.2876 -23.2755
   -23.1799 -23.0950 -10.3210  -7.4655  -4.1113  -3.2435  -0.9161   0.9236
     1.5365   2.4117

          k = 0.2083 0.4090 0.0000 ( 20133 PWs)   bands (ev):

   -23.5657 -23.5329 -23.5005 -23.4086 -23.3620 -23.3181 -23.2923 -23.2721
   -23.1889 -23.0877 -10.1147  -7.7828  -4.3051  -3.0734  -1.1356   1.0804
     1.8535   2.2398

          k = 0.2083 0.4571 0.0000 ( 20137 PWs)   bands (ev):

   -23.5688 -23.5300 -23.5057 -23.4030 -23.3590 -23.3179 -23.2968 -23.2668
   -23.1980 -23.0819  -9.8979  -8.0874  -4.4538  -2.8910  -1.3609   1.1264
     2.0657   2.2788

          k = 0.2083 0.5052 0.0000 ( 20163 PWs)   bands (ev):

   -23.5709 -23.5271 -23.5101 -23.3980 -23.3595 -23.3151 -23.3013 -23.2611
   -23.2062 -23.0780  -9.6900  -8.3561  -4.5541  -2.7159  -1.5672   1.1418
     1.9587   2.6495

          k = 0.2083 0.5533 0.0000 ( 20157 PWs)   bands (ev):

   -23.5720 -23.5249 -23.5131 -23.3947 -23.3611 -23.3108 -23.3059 -23.2570
   -23.2115 -23.0759  -9.5417  -8.5355  -4.6045  -2.5928  -1.7067   1.1477
     1.8994   2.9383

          k = 0.2500 0.4330 0.0000 ( 20149 PWs)   bands (ev):

   -23.5697 -23.5299 -23.5054 -23.4031 -23.3528 -23.3225 -23.2968 -23.2671
   -23.1998 -23.0807  -9.9025  -8.0711  -4.4976  -2.8897  -1.3448   1.4457
     2.0216   2.0836

          k = 0.2500 0.4811 0.0000 ( 20153 PWs)   bands (ev):

   -23.5727 -23.5270 -23.5098 -23.3977 -23.3476 -23.3237 -23.3017 -23.2612
   -23.2104 -23.0755  -9.6827  -8.3471  -4.6391  -2.6982  -1.5574   1.6058
     1.9376   2.3908

          k = 0.2500 0.5292 0.0000 ( 20133 PWs)   bands (ev):

   -23.5746 -23.5242 -23.5134 -23.3935 -23.3473 -23.3196 -23.3071 -23.2556
   -23.2192 -23.0722  -9.4815  -8.5828  -4.7253  -2.5242  -1.7452   1.6721
     1.8241   2.7947

          k = 0.2500 0.5774 0.0000 ( 20123 PWs)   bands (ev):

   -23.5752 -23.5228 -23.5150 -23.3919 -23.3481 -23.3134 -23.3131 -23.2528
   -23.2231 -23.0711  -9.3831  -8.6929  -4.7543  -2.4404  -1.8338   1.7178
     1.7568   3.0089

          k = 0.2917 0.5052 0.0000 ( 20137 PWs)   bands (ev):

   -23.5755 -23.5241 -23.5134 -23.3931 -23.3379 -23.3272 -23.3076 -23.2550
   -23.2220 -23.0710  -9.4600  -8.5993  -4.7670  -2.4999  -1.7588   1.7242
     2.1217   2.5562

          k = 0.2917 0.5533 0.0000 ( 20132 PWs)   bands (ev):

   -23.5769 -23.5216 -23.5163 -23.3904 -23.3353 -23.3227 -23.3147 -23.2490
   -23.2309 -23.0687  -9.2631  -8.8109  -4.8321  -2.3269  -1.9334   1.6810
     2.2578   2.8517

          k = 0.3333 0.5774 0.0000 ( 20133 PWs)   bands (ev):

   -23.5778 -23.5190 -23.5189 -23.3892 -23.3254 -23.3234 -23.3234 -23.2409
   -23.2409 -23.0675  -9.0385  -9.0385  -4.8683  -2.1286  -2.1286   1.6479
     2.6872   2.6872

     the Fermi energy is    -2.1286 ev

!    total energy              =    -326.41867741 Ry
     estimated scf accuracy    <       0.00000074 Ry
     smearing contrib. (-TS)   =      -0.00000956 Ry
     internal energy E=F+TS    =    -326.41866785 Ry

     The total energy is F=E-TS. E is the sum of the following terms:
     one-electron contribution =    -856.46064073 Ry
     hartree contribution      =     435.92873812 Ry
     xc contribution           =     -95.00823056 Ry
     ewald contribution        =     189.12146532 Ry

     convergence has been achieved in   7 iterations

     Writing output data file ../tmp/stanene.save/

     init_run     :      6.23s CPU      6.52s WALL (       1 calls)
     electrons    :    115.60s CPU    119.92s WALL (       1 calls)

     Called by init_run:
     wfcinit      :      5.04s CPU      5.23s WALL (       1 calls)
     potinit      :      0.36s CPU      0.39s WALL (       1 calls)
     hinit0       :      0.40s CPU      0.40s WALL (       1 calls)

     Called by electrons:
     c_bands      :     99.27s CPU    101.86s WALL (       7 calls)
     sum_band     :     12.80s CPU     14.01s WALL (       7 calls)
     v_of_rho     :      1.37s CPU      1.44s WALL (       8 calls)
     newd         :      2.24s CPU      2.78s WALL (       8 calls)
     mix_rho      :      0.20s CPU      0.20s WALL (       7 calls)

     Called by c_bands:
     init_us_2    :      0.82s CPU      0.83s WALL (     915 calls)
     cegterg      :     96.03s CPU     98.61s WALL (     427 calls)

     Called by *egterg:
     cdiaghg      :      1.49s CPU      1.50s WALL (    2303 calls)
     h_psi        :     60.78s CPU     63.35s WALL (    2364 calls)
     s_psi        :      4.54s CPU      4.59s WALL (    2364 calls)
     g_psi        :      0.42s CPU      0.42s WALL (    1876 calls)

     Called by h_psi:
     h_psi:calbec :      7.94s CPU      8.19s WALL (    2364 calls)
     vloc_psi     :     47.93s CPU     50.19s WALL (    2364 calls)
     add_vuspsi   :      4.66s CPU      4.73s WALL (    2364 calls)

     General routines
     calbec       :     10.16s CPU     10.47s WALL (    2791 calls)
     fft          :      1.34s CPU      1.40s WALL (     102 calls)
     ffts         :      0.04s CPU      0.04s WALL (      15 calls)
     fftw         :     50.28s CPU     52.45s WALL (   54664 calls)
     interpolate  :      0.13s CPU      0.13s WALL (       8 calls)

     Parallel routines
     fft_scatt_xy :      4.57s CPU      4.86s WALL (   54781 calls)
     fft_scatt_yz :     26.57s CPU     27.39s WALL (   54781 calls)

     PWSCF        :   2m 2.08s CPU   2m 7.00s WALL


   This run was terminated on:  23: 4:20  23Jan2024            

=------------------------------------------------------------------------------=
   JOB DONE.
=------------------------------------------------------------------------------=
