
     Program PWSCF v.6.7MaX starts on 23Jan2024 at 23:13:24 

     This program is part of the open-source Quantum ESPRESSO suite
     for quantum simulation of materials; please cite
         "P. Giannozzi et al., J. Phys.:Condens. Matter 21 395502 (2009);
         "P. Giannozzi et al., J. Phys.:Condens. Matter 29 465901 (2017);
          URL http://www.quantum-espresso.org", 
     in publications or presentations arising from this work. More details at
     http://www.quantum-espresso.org/quote

     Parallel version (MPI), running on     6 processors

     MPI processes distributed on     1 nodes
     R & G space division:  proc/nbgrp/npool/nimage =       6
     Waiting for input...
     Reading input from standard input

     Current dimensions of program PWSCF are:
     Max number of different atomic species (ntypx) = 10
     Max number of k-points (npk) =  40000
     Max angular momentum in pseudopotentials (lmaxx) =  3

     Subspace diagonalization in iterative solution of the eigenvalue problem:
     one sub-group per band group will be used
     scalapack distributed-memory algorithm (size of sub-group:  2*  2 procs)


     Parallelization info
     --------------------
     sticks:   dense  smooth     PW     G-vecs:    dense   smooth      PW
     Min         431     214     61                75909    26818    4015
     Max         432     215     62                75924    26841    4025
     Sum        2587    1285    367               455489   160939   24117



     bravais-lattice index     =            4
     lattice parameter (alat)  =       8.8506  a.u.
     unit-cell volume          =    2563.9136 (a.u.)^3
     number of atoms/cell      =            2
     number of atomic types    =            1
     number of electrons       =        28.00
     number of Kohn-Sham states=           18
     kinetic-energy cutoff     =      60.0000  Ry
     charge density cutoff     =     480.0000  Ry
     scf convergence threshold =      1.0E-06
     mixing beta               =       0.7000
     number of iterations used =            8  plain     mixing
     Exchange-correlation= SLA  PW   PBE  PBE
                           (   1   4   3   4   0   0   0)

     celldm(1)=   8.850584  celldm(2)=   0.000000  celldm(3)=   4.270286
     celldm(4)=   0.000000  celldm(5)=   0.000000  celldm(6)=   0.000000

     crystal axes: (cart. coord. in units of alat)
               a(1) = (   1.000000   0.000000   0.000000 )  
               a(2) = (  -0.500000   0.866025   0.000000 )  
               a(3) = (   0.000000   0.000000   4.270286 )  

     reciprocal axes: (cart. coord. in units 2 pi/alat)
               b(1) = (  1.000000  0.577350 -0.000000 )  
               b(2) = (  0.000000  1.154701  0.000000 )  
               b(3) = (  0.000000 -0.000000  0.234176 )  


     PseudoPot. # 1 for Sn read from file:
     ../pseudo/Sn_pbe_v1.uspp.F.UPF
     MD5 check sum: 4cf58ce39ec5d5d420df3dd08604eb00
     Pseudo is Ultrasoft + core correction, Zval = 14.0
     Generated by new atomic code, or converted to UPF format
     Using radial grid of  891 points,  6 beta functions with: 
                l(1) =   0
                l(2) =   0
                l(3) =   1
                l(4) =   1
                l(5) =   2
                l(6) =   2
     Q(r) pseudized with  6 coefficients,  rinner =    1.200   1.200   1.200
                                                       1.200   1.200

     atomic species   valence    mass     pseudopotential
        Sn            14.00   118.71000     Sn( 1.00)

      6 Sym. Ops. (no inversion) found



   Cartesian axes

     site n.     atom                  positions (alat units)
         1           Sn  tau(   1) = (   0.0000000   0.5773503   2.1351428  )
         2           Sn  tau(   2) = (   0.5000000   0.2886751   1.9552503  )

     number of k points=    61  Methfessel-Paxton smearing, width (Ry)=  0.0300
                       cart. coord. in units 2pi/alat
        k(    1) = (   0.0000000   0.0000000   0.0000000), wk =   0.0034722
        k(    2) = (   0.0000000   0.0481125   0.0000000), wk =   0.0208333
        k(    3) = (   0.0000000   0.0962250   0.0000000), wk =   0.0208333
        k(    4) = (   0.0000000   0.1443376   0.0000000), wk =   0.0208333
        k(    5) = (   0.0000000   0.1924501   0.0000000), wk =   0.0208333
        k(    6) = (   0.0000000   0.2405626   0.0000000), wk =   0.0208333
        k(    7) = (   0.0000000   0.2886751   0.0000000), wk =   0.0208333
        k(    8) = (   0.0000000   0.3367877   0.0000000), wk =   0.0208333
        k(    9) = (   0.0000000   0.3849002   0.0000000), wk =   0.0208333
        k(   10) = (   0.0000000   0.4330127   0.0000000), wk =   0.0208333
        k(   11) = (   0.0000000   0.4811252   0.0000000), wk =   0.0208333
        k(   12) = (   0.0000000   0.5292377   0.0000000), wk =   0.0208333
        k(   13) = (   0.0000000  -0.5773503   0.0000000), wk =   0.0104167
        k(   14) = (   0.0416667   0.0721688   0.0000000), wk =   0.0208333
        k(   15) = (   0.0416667   0.1202813   0.0000000), wk =   0.0416667
        k(   16) = (   0.0416667   0.1683938   0.0000000), wk =   0.0416667
        k(   17) = (   0.0416667   0.2165064   0.0000000), wk =   0.0416667
        k(   18) = (   0.0416667   0.2646189   0.0000000), wk =   0.0416667
        k(   19) = (   0.0416667   0.3127314   0.0000000), wk =   0.0416667
        k(   20) = (   0.0416667   0.3608439   0.0000000), wk =   0.0416667
        k(   21) = (   0.0416667   0.4089564   0.0000000), wk =   0.0416667
        k(   22) = (   0.0416667   0.4570690   0.0000000), wk =   0.0416667
        k(   23) = (   0.0416667   0.5051815   0.0000000), wk =   0.0416667
        k(   24) = (   0.0416667   0.5532940   0.0000000), wk =   0.0416667
        k(   25) = (   0.0833333   0.1443376   0.0000000), wk =   0.0208333
        k(   26) = (   0.0833333   0.1924501   0.0000000), wk =   0.0416667
        k(   27) = (   0.0833333   0.2405626   0.0000000), wk =   0.0416667
        k(   28) = (   0.0833333   0.2886751   0.0000000), wk =   0.0416667
        k(   29) = (   0.0833333   0.3367877   0.0000000), wk =   0.0416667
        k(   30) = (   0.0833333   0.3849002   0.0000000), wk =   0.0416667
        k(   31) = (   0.0833333   0.4330127   0.0000000), wk =   0.0416667
        k(   32) = (   0.0833333   0.4811252   0.0000000), wk =   0.0416667
        k(   33) = (   0.0833333   0.5292377   0.0000000), wk =   0.0416667
        k(   34) = (   0.0833333   0.5773503   0.0000000), wk =   0.0208333
        k(   35) = (   0.1250000   0.2165064   0.0000000), wk =   0.0208333
        k(   36) = (   0.1250000   0.2646189   0.0000000), wk =   0.0416667
        k(   37) = (   0.1250000   0.3127314   0.0000000), wk =   0.0416667
        k(   38) = (   0.1250000   0.3608439   0.0000000), wk =   0.0416667
        k(   39) = (   0.1250000   0.4089564   0.0000000), wk =   0.0416667
        k(   40) = (   0.1250000   0.4570690   0.0000000), wk =   0.0416667
        k(   41) = (   0.1250000   0.5051815   0.0000000), wk =   0.0416667
        k(   42) = (   0.1250000   0.5532940   0.0000000), wk =   0.0416667
        k(   43) = (   0.1666667   0.2886751   0.0000000), wk =   0.0208333
        k(   44) = (   0.1666667   0.3367877   0.0000000), wk =   0.0416667
        k(   45) = (   0.1666667   0.3849002   0.0000000), wk =   0.0416667
        k(   46) = (   0.1666667   0.4330127   0.0000000), wk =   0.0416667
        k(   47) = (   0.1666667   0.4811252   0.0000000), wk =   0.0416667
        k(   48) = (   0.1666667   0.5292377   0.0000000), wk =   0.0416667
        k(   49) = (   0.1666667   0.5773503   0.0000000), wk =   0.0208333
        k(   50) = (   0.2083333   0.3608439   0.0000000), wk =   0.0208333
        k(   51) = (   0.2083333   0.4089564   0.0000000), wk =   0.0416667
        k(   52) = (   0.2083333   0.4570690   0.0000000), wk =   0.0416667
        k(   53) = (   0.2083333   0.5051815   0.0000000), wk =   0.0416667
        k(   54) = (   0.2083333   0.5532940   0.0000000), wk =   0.0416667
        k(   55) = (   0.2500000   0.4330127   0.0000000), wk =   0.0208333
        k(   56) = (   0.2500000   0.4811252   0.0000000), wk =   0.0416667
        k(   57) = (   0.2500000   0.5292377   0.0000000), wk =   0.0416667
        k(   58) = (   0.2500000   0.5773503   0.0000000), wk =   0.0208333
        k(   59) = (   0.2916667   0.5051815   0.0000000), wk =   0.0208333
        k(   60) = (   0.2916667   0.5532940   0.0000000), wk =   0.0416667
        k(   61) = (   0.3333333   0.5773503   0.0000000), wk =   0.0069444

     Dense  grid:   455489 G-vectors     FFT dimensions: (  64,  64, 270)

     Smooth grid:   160939 G-vectors     FFT dimensions: (  45,  45, 192)

     Estimated max dynamical RAM per process >     322.30 MB

     Estimated total dynamical RAM >       1.89 GB

     Initial potential from superposition of free atoms

     starting charge   25.99991, renormalised to   28.00000

     negative rho (up, down):  5.949E-04 0.000E+00
     Starting wfcs are   18 randomized atomic wfcs

     total cpu time spent up to now is        5.9 secs

     Self-consistent Calculation

     iteration #  1     ecut=    60.00 Ry     beta= 0.70
     Davidson diagonalization with overlap
     ethr =  1.00E-02,  avg # of iterations =  8.8

     negative rho (up, down):  1.828E-04 0.000E+00

     total cpu time spent up to now is       28.8 secs

     total energy              =    -325.45941533 Ry
     estimated scf accuracy    <       2.46661603 Ry

     iteration #  2     ecut=    60.00 Ry     beta= 0.70
     Davidson diagonalization with overlap
     ethr =  8.81E-03,  avg # of iterations =  2.1

     negative rho (up, down):  1.241E-04 0.000E+00

     total cpu time spent up to now is       45.4 secs

     total energy              =    -326.35803847 Ry
     estimated scf accuracy    <       0.38169717 Ry

     iteration #  3     ecut=    60.00 Ry     beta= 0.70
     Davidson diagonalization with overlap
     ethr =  1.36E-03,  avg # of iterations =  2.2

     negative rho (up, down):  8.889E-05 0.000E+00

     total cpu time spent up to now is       61.5 secs

     total energy              =    -326.41603197 Ry
     estimated scf accuracy    <       0.00624883 Ry

     iteration #  4     ecut=    60.00 Ry     beta= 0.70
     Davidson diagonalization with overlap
     c_bands:  1 eigenvalues not converged
     ethr =  2.23E-05,  avg # of iterations =  8.3

     negative rho (up, down):  8.464E-05 0.000E+00

     total cpu time spent up to now is       84.2 secs

     total energy              =    -326.41806055 Ry
     estimated scf accuracy    <       0.00034811 Ry

     iteration #  5     ecut=    60.00 Ry     beta= 0.70
     Davidson diagonalization with overlap
     ethr =  1.24E-06,  avg # of iterations =  4.8

     negative rho (up, down):  8.485E-05 0.000E+00

     total cpu time spent up to now is      104.9 secs

     total energy              =    -326.41809732 Ry
     estimated scf accuracy    <       0.00003751 Ry

     iteration #  6     ecut=    60.00 Ry     beta= 0.70
     Davidson diagonalization with overlap
     ethr =  1.34E-07,  avg # of iterations =  2.2

     negative rho (up, down):  8.540E-05 0.000E+00

     total cpu time spent up to now is      120.2 secs

     total energy              =    -326.41810551 Ry
     estimated scf accuracy    <       0.00001432 Ry

     iteration #  7     ecut=    60.00 Ry     beta= 0.70
     Davidson diagonalization with overlap
     ethr =  5.12E-08,  avg # of iterations =  2.0

     negative rho (up, down):  8.566E-05 0.000E+00

     total cpu time spent up to now is      135.0 secs

     End of self-consistent calculation

          k = 0.0000 0.0000 0.0000 ( 20025 PWs)   bands (ev):

   -23.5219 -23.5219 -23.4437 -23.4437 -23.4293 -23.3595 -23.2169 -23.2169
   -23.1608 -23.1608 -11.3676  -5.2710  -2.3979  -2.3979  -1.9387  -0.0628
     1.0970   1.0970

          k = 0.0000 0.0481 0.0000 ( 20035 PWs)   bands (ev):

   -23.5228 -23.5226 -23.4455 -23.4425 -23.4269 -23.3582 -23.2194 -23.2192
   -23.1595 -23.1585 -11.3529  -5.2941  -2.6873  -2.4304  -1.6311  -0.0617
     1.0669   1.1528

          k = 0.0000 0.0962 0.0000 ( 20005 PWs)   bands (ev):

   -23.5252 -23.5247 -23.4494 -23.4392 -23.4214 -23.3544 -23.2258 -23.2253
   -23.1563 -23.1527 -11.3089  -5.3716  -3.0742  -2.5209  -1.1952  -0.0616
     1.0115   1.3121

          k = 0.0000 0.1443 0.0000 ( 20065 PWs)   bands (ev):

   -23.5285 -23.5277 -23.4542 -23.4342 -23.4149 -23.3483 -23.2345 -23.2338
   -23.1525 -23.1451 -11.2358  -5.5241  -3.3844  -2.6526  -0.8313  -0.0714
     1.0155   1.5549

          k = 0.0000 0.1925 0.0000 ( 20113 PWs)   bands (ev):

   -23.5318 -23.5310 -23.4596 -23.4283 -23.4086 -23.3399 -23.2439 -23.2431
   -23.1492 -23.1369 -11.1341  -5.7678  -3.5799  -2.8067  -0.6307  -0.0942
     1.1600   2.1786

          k = 0.0000 0.2406 0.0000 ( 20071 PWs)   bands (ev):

   -23.5345 -23.5343 -23.4655 -23.4220 -23.4033 -23.3296 -23.2534 -23.2524
   -23.1471 -23.1289 -11.0047  -6.0936  -3.6607  -2.9672  -0.6181  -0.1230
     1.4185   2.2896

          k = 0.0000 0.2887 0.0000 ( 20087 PWs)   bands (ev):

   -23.5373 -23.5362 -23.4717 -23.4157 -23.3994 -23.3181 -23.2624 -23.2608
   -23.1463 -23.1215 -10.8491  -6.4719  -3.6514  -3.1221  -0.7235  -0.1709
     1.6539   2.4648

          k = 0.0000 0.3368 0.0000 ( 20109 PWs)   bands (ev):

   -23.5399 -23.5366 -23.4782 -23.4099 -23.3970 -23.3063 -23.2706 -23.2675
   -23.1469 -23.1148 -10.6696  -6.8717  -3.5803  -3.2632  -0.8775  -0.2511
     1.8075   2.6673

          k = 0.0000 0.3849 0.0000 ( 20145 PWs)   bands (ev):

   -23.5419 -23.5358 -23.4849 -23.4049 -23.3960 -23.2959 -23.2777 -23.2712
   -23.1487 -23.1092 -10.4706  -7.2686  -3.4705  -3.3847  -1.0479  -0.3553
     1.9388   2.8825

          k = 0.0000 0.4330 0.0000 ( 20161 PWs)   bands (ev):

   -23.5435 -23.5339 -23.4914 -23.4009 -23.3958 -23.2902 -23.2834 -23.2698
   -23.1514 -23.1046 -10.2601  -7.6419  -3.4826  -3.3418  -1.2189  -0.4627
     2.0871   3.1012

          k = 0.0000 0.4811 0.0000 ( 20157 PWs)   bands (ev):

   -23.5445 -23.5311 -23.4975 -23.3980 -23.3962 -23.2893 -23.2876 -23.2641
   -23.1544 -23.1013 -10.0549  -7.9675  -3.5542  -3.2155  -1.3741  -0.5525
     2.2519   3.2809

          k = 0.0000 0.5292 0.0000 ( 20142 PWs)   bands (ev):

   -23.5452 -23.5283 -23.5023 -23.3966 -23.3962 -23.2901 -23.2898 -23.2590
   -23.1567 -23.0993  -9.8896  -8.2066  -3.5978  -3.1189  -1.4884  -0.6108
     2.4021   3.3382

          k = 0.0000-0.5774 0.0000 ( 20152 PWs)   bands (ev):

   -23.5454 -23.5270 -23.5043 -23.3968 -23.3956 -23.2909 -23.2900 -23.2570
   -23.1576 -23.0987  -9.8221  -8.2988  -3.6124  -3.0818  -1.5315  -0.6309
     2.4695   3.3917

          k = 0.0417 0.0722 0.0000 ( 20017 PWs)   bands (ev):

   -23.5244 -23.5241 -23.4481 -23.4404 -23.4230 -23.3557 -23.2239 -23.2233
   -23.1574 -23.1543 -11.3235  -5.3444  -2.9735  -2.4962  -1.3052  -0.0611
     1.0146   1.2690

          k = 0.0417 0.1203 0.0000 ( 20039 PWs)   bands (ev):

   -23.5271 -23.5267 -23.4522 -23.4366 -23.4169 -23.3508 -23.2315 -23.2303
   -23.1543 -23.1474 -11.2650  -5.4598  -3.2813  -2.6173  -0.9238  -0.0669
     0.9609   1.4906

          k = 0.0417 0.1684 0.0000 ( 20081 PWs)   bands (ev):

   -23.5305 -23.5297 -23.4571 -23.4315 -23.4102 -23.3436 -23.2405 -23.2390
   -23.1512 -23.1394 -11.1775  -5.6595  -3.5098  -2.7713  -0.6283  -0.0878
     0.9991   1.7854

          k = 0.0417 0.2165 0.0000 ( 20075 PWs)   bands (ev):

   -23.5341 -23.5324 -23.4627 -23.4257 -23.4039 -23.3345 -23.2498 -23.2482
   -23.1490 -23.1311 -11.0620  -5.9466  -3.6315  -2.9382  -0.5153  -0.1131
     1.1888   2.1006

          k = 0.0417 0.2646 0.0000 ( 20107 PWs)   bands (ev):

   -23.5374 -23.5344 -23.4688 -23.4197 -23.3987 -23.3238 -23.2588 -23.2571
   -23.1480 -23.1232 -10.9193  -6.2999  -3.6575  -3.1027  -0.5792  -0.1348
     1.4664   2.2946

          k = 0.0417 0.3127 0.0000 ( 20105 PWs)   bands (ev):

   -23.5403 -23.5354 -23.4752 -23.4140 -23.3951 -23.3123 -23.2672 -23.2647
   -23.1484 -23.1159 -10.7514  -6.6887  -3.6155  -3.2518  -0.7290  -0.1810
     1.7027   2.4995

          k = 0.0417 0.3608 0.0000 ( 20127 PWs)   bands (ev):

   -23.5427 -23.5352 -23.4818 -23.4088 -23.3929 -23.3014 -23.2746 -23.2699
   -23.1500 -23.1096 -10.5615  -7.0860  -3.5457  -3.3618  -0.9100  -0.2573
     1.8678   2.7244

          k = 0.0417 0.4090 0.0000 ( 20135 PWs)   bands (ev):

   -23.5445 -23.5338 -23.4885 -23.4044 -23.3920 -23.2934 -23.2809 -23.2711
   -23.1527 -23.1043 -10.3553  -7.4708  -3.5564  -3.3395  -1.0997  -0.3480
     2.0169   2.9083

          k = 0.0417 0.4571 0.0000 ( 20146 PWs)   bands (ev):

   -23.5458 -23.5315 -23.4948 -23.4008 -23.3921 -23.2906 -23.2856 -23.2669
   -23.1560 -23.1003 -10.1443  -7.8220  -3.6263  -3.2223  -1.2821  -0.4334
     2.1761   3.0357

          k = 0.0417 0.5052 0.0000 ( 20148 PWs)   bands (ev):

   -23.5466 -23.5287 -23.5003 -23.3980 -23.3929 -23.2908 -23.2888 -23.2610
   -23.1590 -23.0975  -9.9525  -8.1099  -3.6810  -3.1067  -1.4346  -0.4976
     2.3318   3.1225

          k = 0.0417 0.5533 0.0000 ( 20150 PWs)   bands (ev):

   -23.5470 -23.5264 -23.5039 -23.3959 -23.3941 -23.2913 -23.2903 -23.2573
   -23.1609 -23.0961  -9.8275  -8.2836  -3.7095  -3.0341  -1.5252  -0.5316
     2.4378   3.2215

          k = 0.0833 0.1443 0.0000 ( 20061 PWs)   bands (ev):

   -23.5300 -23.5294 -23.4560 -23.4331 -23.4104 -23.3450 -23.2394 -23.2374
   -23.1524 -23.1399 -11.1921  -5.6235  -3.4745  -2.7754  -0.6006  -0.0883
     0.9028   1.7874

          k = 0.0833 0.1925 0.0000 ( 20087 PWs)   bands (ev):

   -23.5338 -23.5315 -23.4609 -23.4287 -23.4032 -23.3373 -23.2481 -23.2457
   -23.1511 -23.1314 -11.0907  -5.8701  -3.5969  -2.9624  -0.3451  -0.1295
     0.9383   2.2348

          k = 0.0833 0.2406 0.0000 ( 20121 PWs)   bands (ev):

   -23.5377 -23.5332 -23.4667 -23.4236 -23.3964 -23.3281 -23.2567 -23.2542
   -23.1509 -23.1229 -10.9616  -6.1880  -3.6384  -3.1520  -0.3442  -0.0934
     1.1339   2.2456

          k = 0.0833 0.2887 0.0000 ( 20106 PWs)   bands (ev):

   -23.5414 -23.5340 -23.4729 -23.4183 -23.3908 -23.3180 -23.2648 -23.2621
   -23.1518 -23.1148 -10.8063  -6.5520  -3.6187  -3.3215  -0.5067  -0.0555
     1.4353   2.3319

          k = 0.0833 0.3368 0.0000 ( 20114 PWs)   bands (ev):

   -23.5445 -23.5338 -23.4794 -23.4131 -23.3868 -23.3077 -23.2722 -23.2682
   -23.1540 -23.1075 -10.6271  -6.9366  -3.6050  -3.4126  -0.7118  -0.0706
     1.7235   2.4834

          k = 0.0833 0.3849 0.0000 ( 20126 PWs)   bands (ev):

   -23.5470 -23.5327 -23.4860 -23.4081 -23.3847 -23.2992 -23.2786 -23.2709
   -23.1574 -23.1013 -10.4280  -7.3203  -3.6907  -3.3433  -0.9327  -0.1164
     1.9421   2.6419

          k = 0.0833 0.4330 0.0000 ( 20149 PWs)   bands (ev):

   -23.5489 -23.5307 -23.4925 -23.4036 -23.3843 -23.2947 -23.2838 -23.2687
   -23.1614 -23.0962 -10.2169  -7.6839  -3.7905  -3.2116  -1.1529  -0.1726
     2.1183   2.7410

          k = 0.0833 0.4811 0.0000 ( 20151 PWs)   bands (ev):

   -23.5502 -23.5280 -23.4983 -23.3995 -23.3854 -23.2935 -23.2878 -23.2631
   -23.1656 -23.0925 -10.0100  -8.0041  -3.8674  -3.0725  -1.3521  -0.2233
     2.2650   2.8268

          k = 0.0833 0.5292 0.0000 ( 20157 PWs)   bands (ev):

   -23.5509 -23.5253 -23.5029 -23.3960 -23.3873 -23.2933 -23.2905 -23.2580
   -23.1688 -23.0903  -9.8419  -8.2417  -3.9149  -2.9608  -1.4997  -0.2576
     2.3587   2.9597

          k = 0.0833 0.5774 0.0000 ( 20154 PWs)   bands (ev):

   -23.5511 -23.5241 -23.5048 -23.3942 -23.3886 -23.2929 -23.2918 -23.2561
   -23.1700 -23.0895  -9.7725  -8.3345  -3.9308  -2.9164  -1.5562  -0.2697
     2.3882   3.0812

          k = 0.1250 0.2165 0.0000 ( 20099 PWs)   bands (ev):

   -23.5378 -23.5328 -23.4658 -23.4252 -23.3953 -23.3298 -23.2560 -23.2532
   -23.1521 -23.1226 -10.9758  -6.1489  -3.6237  -3.1845  -0.2280  -0.0448
     0.9396   2.2541

          k = 0.1250 0.2646 0.0000 ( 20119 PWs)   bands (ev):

   -23.5420 -23.5332 -23.4716 -23.4209 -23.3876 -23.3215 -23.2637 -23.2606
   -23.1542 -23.1138 -10.8339  -6.4781  -3.5965  -3.4006  -0.3716   0.1498
     1.0984   2.3064

          k = 0.1250 0.3127 0.0000 ( 20122 PWs)   bands (ev):

   -23.5459 -23.5329 -23.4778 -23.4160 -23.3812 -23.3131 -23.2707 -23.2669
   -23.1576 -23.1055 -10.6667  -6.8366  -3.6396  -3.4787  -0.5658   0.2217
     1.4076   2.3756

          k = 0.1250 0.3608 0.0000 ( 20112 PWs)   bands (ev):

   -23.5492 -23.5318 -23.4843 -23.4109 -23.3768 -23.3057 -23.2770 -23.2703
   -23.1620 -23.0981 -10.4771  -7.2054  -3.8064  -3.3674  -0.7907   0.2254
     1.7527   2.4431

          k = 0.1250 0.4090 0.0000 ( 20146 PWs)   bands (ev):

   -23.5520 -23.5298 -23.4906 -23.4058 -23.3748 -23.3008 -23.2825 -23.2695
   -23.1673 -23.0919 -10.2705  -7.5671  -3.9504  -3.2205  -1.0277   0.2017
     2.0419   2.4680

          k = 0.1250 0.4571 0.0000 ( 20145 PWs)   bands (ev):

   -23.5540 -23.5273 -23.4966 -23.4008 -23.3750 -23.2985 -23.2869 -23.2648
   -23.1730 -23.0871 -10.0573  -7.9028  -4.0607  -3.0614  -1.2575   0.1706
     2.2193   2.5278

          k = 0.1250 0.5052 0.0000 ( 20141 PWs)   bands (ev):

   -23.5553 -23.5245 -23.5017 -23.3963 -23.3769 -23.2972 -23.2905 -23.2591
   -23.1780 -23.0837  -9.8606  -8.1839  -4.1350  -2.9143  -1.4534   0.1438
     2.2570   2.7150

          k = 0.1250 0.5533 0.0000 ( 20145 PWs)   bands (ev):

   -23.5560 -23.5223 -23.5050 -23.3931 -23.3789 -23.2958 -23.2933 -23.2554
   -23.1811 -23.0820  -9.7295  -8.3580  -4.1723  -2.8187  -1.5739   0.1287
     2.2526   2.9319

          k = 0.1667 0.2887 0.0000 ( 20113 PWs)   bands (ev):

   -23.5463 -23.5326 -23.4772 -23.4171 -23.3789 -23.3153 -23.2702 -23.2663
   -23.1589 -23.1048 -10.6799  -6.8012  -3.6504  -3.5074  -0.5188   0.4395
     1.1657   2.3792

          k = 0.1667 0.3368 0.0000 ( 20110 PWs)   bands (ev):

   -23.5505 -23.5313 -23.4834 -23.4124 -23.3714 -23.3103 -23.2762 -23.2698
   -23.1648 -23.0963 -10.5019  -7.1424  -3.8737  -3.3850  -0.7165   0.5971
     1.4199   2.4452

          k = 0.1667 0.3849 0.0000 ( 20115 PWs)   bands (ev):

   -23.5541 -23.5293 -23.4895 -23.4072 -23.3661 -23.3072 -23.2816 -23.2697
   -23.1716 -23.0889 -10.3032  -7.4875  -4.0635  -3.2338  -0.9423   0.6379
     1.7937   2.3724

          k = 0.1667 0.4330 0.0000 ( 20139 PWs)   bands (ev):

   -23.5570 -23.5268 -23.4953 -23.4018 -23.3639 -23.3053 -23.2864 -23.2659
   -23.1789 -23.0828 -10.0907  -7.8218  -4.2139  -3.0646  -1.1774   0.6374
     2.1605   2.2628

          k = 0.1667 0.4811 0.0000 ( 20145 PWs)   bands (ev):

   -23.5591 -23.5240 -23.5006 -23.3966 -23.3644 -23.3035 -23.2906 -23.2602
   -23.1860 -23.0783  -9.8786  -8.1249  -4.3222  -2.8936  -1.3996   0.6264
     2.1523   2.5064

          k = 0.1667 0.5292 0.0000 ( 20147 PWs)   bands (ev):

   -23.5604 -23.5214 -23.5047 -23.3923 -23.3664 -23.3010 -23.2943 -23.2552
   -23.1915 -23.0755  -9.7002  -8.3594  -4.3874  -2.7514  -1.5742   0.6163
     2.0908   2.7992

          k = 0.1667 0.5774 0.0000 ( 20135 PWs)   bands (ev):

   -23.5609 -23.5201 -23.5064 -23.3905 -23.3676 -23.2984 -23.2973 -23.2531
   -23.1937 -23.0745  -9.6238  -8.4549  -4.4092  -2.6917  -1.6449   0.6124
     2.0697   2.9655

          k = 0.2083 0.3608 0.0000 ( 20119 PWs)   bands (ev):

   -23.5548 -23.5292 -23.4891 -23.4077 -23.3624 -23.3102 -23.2813 -23.2697
   -23.1731 -23.0878 -10.3143  -7.4591  -4.1043  -3.2394  -0.9124   0.9301
     1.5410   2.4153

          k = 0.2083 0.4090 0.0000 ( 20133 PWs)   bands (ev):

   -23.5586 -23.5266 -23.4947 -23.4024 -23.3555 -23.3113 -23.2861 -23.2663
   -23.1821 -23.0805 -10.1080  -7.7763  -4.2981  -3.0694  -1.1320   1.0868
     1.8578   2.2435

          k = 0.2083 0.4571 0.0000 ( 20137 PWs)   bands (ev):

   -23.5617 -23.5238 -23.4998 -23.3968 -23.3524 -23.3111 -23.2906 -23.2610
   -23.1913 -23.0747  -9.8912  -8.0809  -4.4469  -2.8870  -1.3572   1.1329
     2.0696   2.2821

          k = 0.2083 0.5052 0.0000 ( 20163 PWs)   bands (ev):

   -23.5638 -23.5210 -23.5042 -23.3918 -23.3528 -23.3085 -23.2950 -23.2553
   -23.1995 -23.0707  -9.6834  -8.3496  -4.5471  -2.7120  -1.5634   1.1484
     1.9624   2.6521

          k = 0.2083 0.5533 0.0000 ( 20157 PWs)   bands (ev):

   -23.5649 -23.5188 -23.5072 -23.3886 -23.3543 -23.3043 -23.2996 -23.2512
   -23.2049 -23.0687  -9.5351  -8.5289  -4.5975  -2.5888  -1.7030   1.1543
     1.9030   2.9405

          k = 0.2500 0.4330 0.0000 ( 20149 PWs)   bands (ev):

   -23.5625 -23.5238 -23.4996 -23.3969 -23.3464 -23.3156 -23.2906 -23.2613
   -23.1932 -23.0735  -9.8958  -8.0646  -4.4906  -2.8858  -1.3411   1.4521
     2.0259   2.0876

          k = 0.2500 0.4811 0.0000 ( 20153 PWs)   bands (ev):

   -23.5655 -23.5209 -23.5039 -23.3915 -23.3410 -23.3168 -23.2954 -23.2554
   -23.2038 -23.0682  -9.6760  -8.3406  -4.6322  -2.6944  -1.5537   1.6118
     1.9418   2.3950

          k = 0.2500 0.5292 0.0000 ( 20133 PWs)   bands (ev):

   -23.5674 -23.5182 -23.5075 -23.3874 -23.3407 -23.3129 -23.3008 -23.2496
   -23.2127 -23.0650  -9.4749  -8.5763  -4.7184  -2.5203  -1.7415   1.6779
     1.8285   2.7981

          k = 0.2500 0.5774 0.0000 ( 20123 PWs)   bands (ev):

   -23.5681 -23.5168 -23.5091 -23.3858 -23.3413 -23.3070 -23.3066 -23.2469
   -23.2166 -23.0639  -9.3765  -8.6863  -4.7473  -2.4365  -1.8301   1.7243
     1.7604   3.0123

          k = 0.2917 0.5052 0.0000 ( 20137 PWs)   bands (ev):

   -23.5683 -23.5180 -23.5075 -23.3870 -23.3315 -23.3203 -23.3012 -23.2490
   -23.2155 -23.0637  -9.4533  -8.5927  -4.7600  -2.4961  -1.7551   1.7281
     2.1280   2.5609

          k = 0.2917 0.5533 0.0000 ( 20132 PWs)   bands (ev):

   -23.5698 -23.5156 -23.5104 -23.3843 -23.3287 -23.3160 -23.3082 -23.2430
   -23.2246 -23.0614  -9.2565  -8.8042  -4.8251  -2.3231  -1.9297   1.6847
     2.2643   2.8568

          k = 0.3333 0.5774 0.0000 ( 20133 PWs)   bands (ev):

   -23.5706 -23.5130 -23.5130 -23.3831 -23.3192 -23.3166 -23.3166 -23.2347
   -23.2347 -23.0602  -9.0319  -9.0318  -4.8613  -2.1248  -2.1248   1.6516
     2.6933   2.6933

     the Fermi energy is    -2.1225 ev

!    total energy              =    -326.41810744 Ry
     estimated scf accuracy    <       0.00000078 Ry
     smearing contrib. (-TS)   =       0.00191201 Ry
     internal energy E=F+TS    =    -326.42001946 Ry

     The total energy is F=E-TS. E is the sum of the following terms:
     one-electron contribution =    -856.47549374 Ry
     hartree contribution      =     435.94261797 Ry
     xc contribution           =     -95.00860901 Ry
     ewald contribution        =     189.12146532 Ry

     convergence has been achieved in   7 iterations

     Writing output data file ../tmp/stanene.save/

     init_run     :      5.56s CPU      5.78s WALL (       1 calls)
     electrons    :    124.58s CPU    129.13s WALL (       1 calls)

     Called by init_run:
     wfcinit      :      4.24s CPU      4.33s WALL (       1 calls)
     potinit      :      0.37s CPU      0.39s WALL (       1 calls)
     hinit0       :      0.45s CPU      0.47s WALL (       1 calls)

     Called by electrons:
     c_bands      :    107.08s CPU    110.10s WALL (       7 calls)
     sum_band     :     13.66s CPU     14.64s WALL (       7 calls)
     v_of_rho     :      1.33s CPU      1.42s WALL (       8 calls)
     newd         :      2.49s CPU      3.03s WALL (       8 calls)
     mix_rho      :      0.20s CPU      0.20s WALL (       7 calls)

     Called by c_bands:
     init_us_2    :      0.83s CPU      0.84s WALL (     915 calls)
     cegterg      :    103.61s CPU    106.60s WALL (     427 calls)

     Called by *egterg:
     cdiaghg      :      1.59s CPU      1.60s WALL (    2278 calls)
     h_psi        :     64.58s CPU     67.49s WALL (    2339 calls)
     s_psi        :      4.62s CPU      4.66s WALL (    2339 calls)
     g_psi        :      0.42s CPU      0.42s WALL (    1851 calls)

     Called by h_psi:
     h_psi:calbec :      8.17s CPU      8.48s WALL (    2339 calls)
     vloc_psi     :     51.44s CPU     53.97s WALL (    2339 calls)
     add_vuspsi   :      4.72s CPU      4.79s WALL (    2339 calls)

     General routines
     calbec       :     10.53s CPU     10.90s WALL (    2766 calls)
     fft          :      1.38s CPU      1.43s WALL (     102 calls)
     ffts         :      0.05s CPU      0.05s WALL (      15 calls)
     fftw         :     53.98s CPU     56.39s WALL (   54476 calls)
     interpolate  :      0.14s CPU      0.14s WALL (       8 calls)

     Parallel routines
     fft_scatt_xy :      4.87s CPU      5.20s WALL (   54593 calls)
     fft_scatt_yz :     29.32s CPU     30.32s WALL (   54593 calls)

     PWSCF        :   2m10.43s CPU   2m15.43s WALL


   This run was terminated on:  23:15:40  23Jan2024            

=------------------------------------------------------------------------------=
   JOB DONE.
=------------------------------------------------------------------------------=
