
     Program PWSCF v.6.7MaX starts on 23Jan2024 at 23:15:40 

     This program is part of the open-source Quantum ESPRESSO suite
     for quantum simulation of materials; please cite
         "P. Giannozzi et al., J. Phys.:Condens. Matter 21 395502 (2009);
         "P. Giannozzi et al., J. Phys.:Condens. Matter 29 465901 (2017);
          URL http://www.quantum-espresso.org", 
     in publications or presentations arising from this work. More details at
     http://www.quantum-espresso.org/quote

     Parallel version (MPI), running on     6 processors

     MPI processes distributed on     1 nodes
     R & G space division:  proc/nbgrp/npool/nimage =       6
     Waiting for input...
     Reading input from standard input

     Current dimensions of program PWSCF are:
     Max number of different atomic species (ntypx) = 10
     Max number of k-points (npk) =  40000
     Max angular momentum in pseudopotentials (lmaxx) =  3

     Subspace diagonalization in iterative solution of the eigenvalue problem:
     one sub-group per band group will be used
     scalapack distributed-memory algorithm (size of sub-group:  2*  2 procs)


     Parallelization info
     --------------------
     sticks:   dense  smooth     PW     G-vecs:    dense   smooth      PW
     Min         431     214     61                75909    26818    4015
     Max         432     215     62                75924    26841    4025
     Sum        2587    1285    367               455489   160939   24117



     bravais-lattice index     =            4
     lattice parameter (alat)  =       8.8506  a.u.
     unit-cell volume          =    2563.9136 (a.u.)^3
     number of atoms/cell      =            2
     number of atomic types    =            1
     number of electrons       =        28.00
     number of Kohn-Sham states=           18
     kinetic-energy cutoff     =      60.0000  Ry
     charge density cutoff     =     480.0000  Ry
     scf convergence threshold =      1.0E-06
     mixing beta               =       0.7000
     number of iterations used =            8  plain     mixing
     Exchange-correlation= SLA  PW   PBE  PBE
                           (   1   4   3   4   0   0   0)

     celldm(1)=   8.850584  celldm(2)=   0.000000  celldm(3)=   4.270286
     celldm(4)=   0.000000  celldm(5)=   0.000000  celldm(6)=   0.000000

     crystal axes: (cart. coord. in units of alat)
               a(1) = (   1.000000   0.000000   0.000000 )  
               a(2) = (  -0.500000   0.866025   0.000000 )  
               a(3) = (   0.000000   0.000000   4.270286 )  

     reciprocal axes: (cart. coord. in units 2 pi/alat)
               b(1) = (  1.000000  0.577350 -0.000000 )  
               b(2) = (  0.000000  1.154701  0.000000 )  
               b(3) = (  0.000000 -0.000000  0.234176 )  


     PseudoPot. # 1 for Sn read from file:
     ../pseudo/Sn_pbe_v1.uspp.F.UPF
     MD5 check sum: 4cf58ce39ec5d5d420df3dd08604eb00
     Pseudo is Ultrasoft + core correction, Zval = 14.0
     Generated by new atomic code, or converted to UPF format
     Using radial grid of  891 points,  6 beta functions with: 
                l(1) =   0
                l(2) =   0
                l(3) =   1
                l(4) =   1
                l(5) =   2
                l(6) =   2
     Q(r) pseudized with  6 coefficients,  rinner =    1.200   1.200   1.200
                                                       1.200   1.200

     atomic species   valence    mass     pseudopotential
        Sn            14.00   118.71000     Sn( 1.00)

      6 Sym. Ops. (no inversion) found



   Cartesian axes

     site n.     atom                  positions (alat units)
         1           Sn  tau(   1) = (   0.0000000   0.5773503   2.1351428  )
         2           Sn  tau(   2) = (   0.5000000   0.2886751   1.9552503  )

     number of k points=    61  Methfessel-Paxton smearing, width (Ry)=  0.0350
                       cart. coord. in units 2pi/alat
        k(    1) = (   0.0000000   0.0000000   0.0000000), wk =   0.0034722
        k(    2) = (   0.0000000   0.0481125   0.0000000), wk =   0.0208333
        k(    3) = (   0.0000000   0.0962250   0.0000000), wk =   0.0208333
        k(    4) = (   0.0000000   0.1443376   0.0000000), wk =   0.0208333
        k(    5) = (   0.0000000   0.1924501   0.0000000), wk =   0.0208333
        k(    6) = (   0.0000000   0.2405626   0.0000000), wk =   0.0208333
        k(    7) = (   0.0000000   0.2886751   0.0000000), wk =   0.0208333
        k(    8) = (   0.0000000   0.3367877   0.0000000), wk =   0.0208333
        k(    9) = (   0.0000000   0.3849002   0.0000000), wk =   0.0208333
        k(   10) = (   0.0000000   0.4330127   0.0000000), wk =   0.0208333
        k(   11) = (   0.0000000   0.4811252   0.0000000), wk =   0.0208333
        k(   12) = (   0.0000000   0.5292377   0.0000000), wk =   0.0208333
        k(   13) = (   0.0000000  -0.5773503   0.0000000), wk =   0.0104167
        k(   14) = (   0.0416667   0.0721688   0.0000000), wk =   0.0208333
        k(   15) = (   0.0416667   0.1202813   0.0000000), wk =   0.0416667
        k(   16) = (   0.0416667   0.1683938   0.0000000), wk =   0.0416667
        k(   17) = (   0.0416667   0.2165064   0.0000000), wk =   0.0416667
        k(   18) = (   0.0416667   0.2646189   0.0000000), wk =   0.0416667
        k(   19) = (   0.0416667   0.3127314   0.0000000), wk =   0.0416667
        k(   20) = (   0.0416667   0.3608439   0.0000000), wk =   0.0416667
        k(   21) = (   0.0416667   0.4089564   0.0000000), wk =   0.0416667
        k(   22) = (   0.0416667   0.4570690   0.0000000), wk =   0.0416667
        k(   23) = (   0.0416667   0.5051815   0.0000000), wk =   0.0416667
        k(   24) = (   0.0416667   0.5532940   0.0000000), wk =   0.0416667
        k(   25) = (   0.0833333   0.1443376   0.0000000), wk =   0.0208333
        k(   26) = (   0.0833333   0.1924501   0.0000000), wk =   0.0416667
        k(   27) = (   0.0833333   0.2405626   0.0000000), wk =   0.0416667
        k(   28) = (   0.0833333   0.2886751   0.0000000), wk =   0.0416667
        k(   29) = (   0.0833333   0.3367877   0.0000000), wk =   0.0416667
        k(   30) = (   0.0833333   0.3849002   0.0000000), wk =   0.0416667
        k(   31) = (   0.0833333   0.4330127   0.0000000), wk =   0.0416667
        k(   32) = (   0.0833333   0.4811252   0.0000000), wk =   0.0416667
        k(   33) = (   0.0833333   0.5292377   0.0000000), wk =   0.0416667
        k(   34) = (   0.0833333   0.5773503   0.0000000), wk =   0.0208333
        k(   35) = (   0.1250000   0.2165064   0.0000000), wk =   0.0208333
        k(   36) = (   0.1250000   0.2646189   0.0000000), wk =   0.0416667
        k(   37) = (   0.1250000   0.3127314   0.0000000), wk =   0.0416667
        k(   38) = (   0.1250000   0.3608439   0.0000000), wk =   0.0416667
        k(   39) = (   0.1250000   0.4089564   0.0000000), wk =   0.0416667
        k(   40) = (   0.1250000   0.4570690   0.0000000), wk =   0.0416667
        k(   41) = (   0.1250000   0.5051815   0.0000000), wk =   0.0416667
        k(   42) = (   0.1250000   0.5532940   0.0000000), wk =   0.0416667
        k(   43) = (   0.1666667   0.2886751   0.0000000), wk =   0.0208333
        k(   44) = (   0.1666667   0.3367877   0.0000000), wk =   0.0416667
        k(   45) = (   0.1666667   0.3849002   0.0000000), wk =   0.0416667
        k(   46) = (   0.1666667   0.4330127   0.0000000), wk =   0.0416667
        k(   47) = (   0.1666667   0.4811252   0.0000000), wk =   0.0416667
        k(   48) = (   0.1666667   0.5292377   0.0000000), wk =   0.0416667
        k(   49) = (   0.1666667   0.5773503   0.0000000), wk =   0.0208333
        k(   50) = (   0.2083333   0.3608439   0.0000000), wk =   0.0208333
        k(   51) = (   0.2083333   0.4089564   0.0000000), wk =   0.0416667
        k(   52) = (   0.2083333   0.4570690   0.0000000), wk =   0.0416667
        k(   53) = (   0.2083333   0.5051815   0.0000000), wk =   0.0416667
        k(   54) = (   0.2083333   0.5532940   0.0000000), wk =   0.0416667
        k(   55) = (   0.2500000   0.4330127   0.0000000), wk =   0.0208333
        k(   56) = (   0.2500000   0.4811252   0.0000000), wk =   0.0416667
        k(   57) = (   0.2500000   0.5292377   0.0000000), wk =   0.0416667
        k(   58) = (   0.2500000   0.5773503   0.0000000), wk =   0.0208333
        k(   59) = (   0.2916667   0.5051815   0.0000000), wk =   0.0208333
        k(   60) = (   0.2916667   0.5532940   0.0000000), wk =   0.0416667
        k(   61) = (   0.3333333   0.5773503   0.0000000), wk =   0.0069444

     Dense  grid:   455489 G-vectors     FFT dimensions: (  64,  64, 270)

     Smooth grid:   160939 G-vectors     FFT dimensions: (  45,  45, 192)

     Estimated max dynamical RAM per process >     322.30 MB

     Estimated total dynamical RAM >       1.89 GB

     Initial potential from superposition of free atoms

     starting charge   25.99991, renormalised to   28.00000

     negative rho (up, down):  5.949E-04 0.000E+00
     Starting wfcs are   18 randomized atomic wfcs

     total cpu time spent up to now is        6.3 secs

     Self-consistent Calculation

     iteration #  1     ecut=    60.00 Ry     beta= 0.70
     Davidson diagonalization with overlap
     ethr =  1.00E-02,  avg # of iterations =  8.8

     negative rho (up, down):  1.932E-04 0.000E+00

     total cpu time spent up to now is       28.1 secs

     total energy              =    -325.45827025 Ry
     estimated scf accuracy    <       2.46787166 Ry

     iteration #  2     ecut=    60.00 Ry     beta= 0.70
     Davidson diagonalization with overlap
     ethr =  8.81E-03,  avg # of iterations =  2.1

     negative rho (up, down):  1.272E-04 0.000E+00

     total cpu time spent up to now is       45.8 secs

     total energy              =    -326.35753497 Ry
     estimated scf accuracy    <       0.38286805 Ry

     iteration #  3     ecut=    60.00 Ry     beta= 0.70
     Davidson diagonalization with overlap
     ethr =  1.37E-03,  avg # of iterations =  2.2

     negative rho (up, down):  8.902E-05 0.000E+00

     total cpu time spent up to now is       63.7 secs

     total energy              =    -326.41565943 Ry
     estimated scf accuracy    <       0.00628180 Ry

     iteration #  4     ecut=    60.00 Ry     beta= 0.70
     Davidson diagonalization with overlap
     c_bands:  1 eigenvalues not converged
     ethr =  2.24E-05,  avg # of iterations =  8.4

     negative rho (up, down):  8.461E-05 0.000E+00

     total cpu time spent up to now is       86.3 secs

     total energy              =    -326.41769381 Ry
     estimated scf accuracy    <       0.00034845 Ry

     iteration #  5     ecut=    60.00 Ry     beta= 0.70
     Davidson diagonalization with overlap
     ethr =  1.24E-06,  avg # of iterations =  5.1

     negative rho (up, down):  8.484E-05 0.000E+00

     total cpu time spent up to now is      105.2 secs

     total energy              =    -326.41773090 Ry
     estimated scf accuracy    <       0.00003858 Ry

     iteration #  6     ecut=    60.00 Ry     beta= 0.70
     Davidson diagonalization with overlap
     ethr =  1.38E-07,  avg # of iterations =  2.1

     negative rho (up, down):  8.543E-05 0.000E+00

     total cpu time spent up to now is      120.2 secs

     total energy              =    -326.41773945 Ry
     estimated scf accuracy    <       0.00001445 Ry

     iteration #  7     ecut=    60.00 Ry     beta= 0.70
     Davidson diagonalization with overlap
     ethr =  5.16E-08,  avg # of iterations =  2.0

     negative rho (up, down):  8.569E-05 0.000E+00

     total cpu time spent up to now is      135.2 secs

     End of self-consistent calculation

          k = 0.0000 0.0000 0.0000 ( 20025 PWs)   bands (ev):

   -23.5214 -23.5214 -23.4433 -23.4433 -23.4289 -23.3591 -23.2164 -23.2164
   -23.1603 -23.1603 -11.3671  -5.2707  -2.3973  -2.3973  -1.9382  -0.0626
     1.0975   1.0975

          k = 0.0000 0.0481 0.0000 ( 20035 PWs)   bands (ev):

   -23.5223 -23.5221 -23.4450 -23.4421 -23.4265 -23.3578 -23.2189 -23.2187
   -23.1590 -23.1580 -11.3524  -5.2938  -2.6868  -2.4298  -1.6305  -0.0614
     1.0675   1.1533

          k = 0.0000 0.0962 0.0000 ( 20005 PWs)   bands (ev):

   -23.5247 -23.5242 -23.4489 -23.4387 -23.4210 -23.3540 -23.2254 -23.2249
   -23.1557 -23.1522 -11.3083  -5.3712  -3.0737  -2.5203  -1.1946  -0.0614
     1.0120   1.3127

          k = 0.0000 0.1443 0.0000 ( 20065 PWs)   bands (ev):

   -23.5280 -23.5272 -23.4537 -23.4338 -23.4145 -23.3479 -23.2340 -23.2333
   -23.1520 -23.1445 -11.2352  -5.5238  -3.3839  -2.6521  -0.8307  -0.0711
     1.0160   1.5555

          k = 0.0000 0.1925 0.0000 ( 20113 PWs)   bands (ev):

   -23.5313 -23.5305 -23.4591 -23.4278 -23.4081 -23.3395 -23.2434 -23.2427
   -23.1487 -23.1364 -11.1335  -5.7674  -3.5794  -2.8061  -0.6301  -0.0939
     1.1604   2.1786

          k = 0.0000 0.2406 0.0000 ( 20071 PWs)   bands (ev):

   -23.5340 -23.5338 -23.4650 -23.4215 -23.4028 -23.3292 -23.2529 -23.2519
   -23.1466 -23.1284 -11.0042  -6.0932  -3.6602  -2.9666  -0.6176  -0.1227
     1.4189   2.2898

          k = 0.0000 0.2887 0.0000 ( 20087 PWs)   bands (ev):

   -23.5368 -23.5357 -23.4713 -23.4152 -23.3989 -23.3177 -23.2620 -23.2603
   -23.1458 -23.1209 -10.8485  -6.4715  -3.6510  -3.1216  -0.7230  -0.1705
     1.6542   2.4649

          k = 0.0000 0.3368 0.0000 ( 20109 PWs)   bands (ev):

   -23.5394 -23.5362 -23.4778 -23.4095 -23.3965 -23.3058 -23.2702 -23.2670
   -23.1463 -23.1143 -10.6690  -6.8712  -3.5800  -3.2627  -0.8770  -0.2506
     1.8077   2.6674

          k = 0.0000 0.3849 0.0000 ( 20145 PWs)   bands (ev):

   -23.5414 -23.5354 -23.4845 -23.4045 -23.3955 -23.2955 -23.2772 -23.2708
   -23.1482 -23.1086 -10.4700  -7.2681  -3.4702  -3.3841  -1.0474  -0.3548
     1.9390   2.8825

          k = 0.0000 0.4330 0.0000 ( 20161 PWs)   bands (ev):

   -23.5430 -23.5334 -23.4910 -23.4004 -23.3953 -23.2897 -23.2829 -23.2694
   -23.1509 -23.1041 -10.2596  -7.6413  -3.4820  -3.3414  -1.2185  -0.4621
     2.0873   3.1012

          k = 0.0000 0.4811 0.0000 ( 20157 PWs)   bands (ev):

   -23.5440 -23.5307 -23.4971 -23.3975 -23.3957 -23.2889 -23.2871 -23.2637
   -23.1539 -23.1008 -10.0544  -7.9670  -3.5536  -3.2151  -1.3737  -0.5520
     2.2520   3.2810

          k = 0.0000 0.5292 0.0000 ( 20142 PWs)   bands (ev):

   -23.5446 -23.5279 -23.5019 -23.3961 -23.3957 -23.2896 -23.2893 -23.2585
   -23.1562 -23.0988  -9.8891  -8.2060  -3.5972  -3.1185  -1.4880  -0.6103
     2.4023   3.3383

          k = 0.0000-0.5774 0.0000 ( 20152 PWs)   bands (ev):

   -23.5448 -23.5266 -23.5038 -23.3963 -23.3951 -23.2905 -23.2896 -23.2565
   -23.1571 -23.0981  -9.8216  -8.2983  -3.6118  -3.0814  -1.5312  -0.6303
     2.4697   3.3920

          k = 0.0417 0.0722 0.0000 ( 20017 PWs)   bands (ev):

   -23.5239 -23.5236 -23.4477 -23.4399 -23.4226 -23.3553 -23.2235 -23.2228
   -23.1569 -23.1538 -11.3230  -5.3440  -2.9730  -2.4956  -1.3047  -0.0609
     1.0151   1.2695

          k = 0.0417 0.1203 0.0000 ( 20039 PWs)   bands (ev):

   -23.5266 -23.5262 -23.4517 -23.4361 -23.4165 -23.3504 -23.2310 -23.2298
   -23.1538 -23.1469 -11.2644  -5.4594  -3.2808  -2.6167  -0.9232  -0.0666
     0.9614   1.4911

          k = 0.0417 0.1684 0.0000 ( 20081 PWs)   bands (ev):

   -23.5300 -23.5292 -23.4567 -23.4310 -23.4098 -23.3432 -23.2400 -23.2385
   -23.1507 -23.1388 -11.1770  -5.6591  -3.5093  -2.7707  -0.6278  -0.0875
     0.9996   1.7859

          k = 0.0417 0.2165 0.0000 ( 20075 PWs)   bands (ev):

   -23.5336 -23.5319 -23.4623 -23.4253 -23.4034 -23.3341 -23.2493 -23.2477
   -23.1485 -23.1306 -11.0614  -5.9462  -3.6310  -2.9377  -0.5147  -0.1128
     1.1893   2.1011

          k = 0.0417 0.2646 0.0000 ( 20107 PWs)   bands (ev):

   -23.5369 -23.5339 -23.4684 -23.4193 -23.3983 -23.3234 -23.2583 -23.2566
   -23.1475 -23.1226 -10.9188  -6.2995  -3.6571  -3.1021  -0.5787  -0.1345
     1.4668   2.2949

          k = 0.0417 0.3127 0.0000 ( 20105 PWs)   bands (ev):

   -23.5398 -23.5349 -23.4748 -23.4135 -23.3946 -23.3119 -23.2667 -23.2642
   -23.1478 -23.1154 -10.7509  -6.6882  -3.6151  -3.2512  -0.7286  -0.1806
     1.7029   2.4998

          k = 0.0417 0.3608 0.0000 ( 20127 PWs)   bands (ev):

   -23.5422 -23.5347 -23.4814 -23.4083 -23.3924 -23.3009 -23.2742 -23.2695
   -23.1495 -23.1090 -10.5609  -7.0855  -3.5453  -3.3613  -0.9096  -0.2568
     1.8680   2.7247

          k = 0.0417 0.4090 0.0000 ( 20135 PWs)   bands (ev):

   -23.5440 -23.5334 -23.4881 -23.4039 -23.3915 -23.2929 -23.2804 -23.2707
   -23.1522 -23.1038 -10.3547  -7.4703  -3.5559  -3.3391  -1.0994  -0.3475
     2.0171   2.9085

          k = 0.0417 0.4571 0.0000 ( 20146 PWs)   bands (ev):

   -23.5453 -23.5310 -23.4944 -23.4003 -23.3917 -23.2902 -23.2852 -23.2665
   -23.1555 -23.0997 -10.1437  -7.8215  -3.6257  -3.2219  -1.2817  -0.4328
     2.1762   3.0360

          k = 0.0417 0.5052 0.0000 ( 20148 PWs)   bands (ev):

   -23.5461 -23.5282 -23.4999 -23.3975 -23.3924 -23.2903 -23.2883 -23.2606
   -23.1585 -23.0970  -9.9519  -8.1093  -3.6805  -3.1063  -1.4342  -0.4970
     2.3320   3.1229

          k = 0.0417 0.5533 0.0000 ( 20150 PWs)   bands (ev):

   -23.5465 -23.5260 -23.5035 -23.3954 -23.3937 -23.2909 -23.2898 -23.2568
   -23.1604 -23.0956  -9.8270  -8.2831  -3.7090  -3.0337  -1.5249  -0.5310
     2.4380   3.2218

          k = 0.0833 0.1443 0.0000 ( 20061 PWs)   bands (ev):

   -23.5295 -23.5289 -23.4556 -23.4327 -23.4100 -23.3446 -23.2389 -23.2369
   -23.1519 -23.1394 -11.1915  -5.6231  -3.4740  -2.7748  -0.6000  -0.0881
     0.9033   1.7879

          k = 0.0833 0.1925 0.0000 ( 20087 PWs)   bands (ev):

   -23.5333 -23.5311 -23.4605 -23.4282 -23.4027 -23.3369 -23.2476 -23.2452
   -23.1506 -23.1309 -11.0901  -5.8697  -3.5965  -2.9618  -0.3446  -0.1292
     0.9388   2.2348

          k = 0.0833 0.2406 0.0000 ( 20121 PWs)   bands (ev):

   -23.5372 -23.5327 -23.4662 -23.4232 -23.3959 -23.3277 -23.2562 -23.2538
   -23.1504 -23.1224 -10.9611  -6.1875  -3.6380  -3.1514  -0.3437  -0.0930
     1.1344   2.2458

          k = 0.0833 0.2887 0.0000 ( 20106 PWs)   bands (ev):

   -23.5409 -23.5335 -23.4725 -23.4178 -23.3903 -23.3175 -23.2644 -23.2617
   -23.1513 -23.1143 -10.8058  -6.5515  -3.6183  -3.3209  -0.5063  -0.0550
     1.4357   2.3322

          k = 0.0833 0.3368 0.0000 ( 20114 PWs)   bands (ev):

   -23.5440 -23.5333 -23.4790 -23.4126 -23.3863 -23.3073 -23.2718 -23.2678
   -23.1535 -23.1070 -10.6265  -6.9361  -3.6045  -3.4121  -0.7114  -0.0701
     1.7238   2.4838

          k = 0.0833 0.3849 0.0000 ( 20126 PWs)   bands (ev):

   -23.5465 -23.5322 -23.4856 -23.4077 -23.3842 -23.2987 -23.2782 -23.2705
   -23.1569 -23.1007 -10.4275  -7.3198  -3.6902  -3.3429  -0.9323  -0.1159
     1.9423   2.6427

          k = 0.0833 0.4330 0.0000 ( 20149 PWs)   bands (ev):

   -23.5484 -23.5302 -23.4920 -23.4031 -23.3838 -23.2942 -23.2834 -23.2683
   -23.1609 -23.0957 -10.2164  -7.6834  -3.7899  -3.2113  -1.1525  -0.1720
     2.1185   2.7414

          k = 0.0833 0.4811 0.0000 ( 20151 PWs)   bands (ev):

   -23.5496 -23.5275 -23.4979 -23.3990 -23.3849 -23.2931 -23.2873 -23.2627
   -23.1651 -23.0920 -10.0095  -8.0035  -3.8669  -3.0721  -1.3517  -0.2227
     2.2652   2.8271

          k = 0.0833 0.5292 0.0000 ( 20157 PWs)   bands (ev):

   -23.5504 -23.5249 -23.5025 -23.3956 -23.3868 -23.2928 -23.2900 -23.2576
   -23.1683 -23.0897  -9.8413  -8.2412  -3.9143  -2.9604  -1.4994  -0.2570
     2.3590   2.9600

          k = 0.0833 0.5774 0.0000 ( 20154 PWs)   bands (ev):

   -23.5506 -23.5236 -23.5044 -23.3938 -23.3881 -23.2924 -23.2913 -23.2557
   -23.1695 -23.0890  -9.7720  -8.3340  -3.9303  -2.9161  -1.5558  -0.2691
     2.3884   3.0815

          k = 0.1250 0.2165 0.0000 ( 20099 PWs)   bands (ev):

   -23.5373 -23.5323 -23.4654 -23.4247 -23.3948 -23.3294 -23.2555 -23.2527
   -23.1516 -23.1221 -10.9752  -6.1485  -3.6233  -3.1839  -0.2277  -0.0443
     0.9401   2.2542

          k = 0.1250 0.2646 0.0000 ( 20119 PWs)   bands (ev):

   -23.5415 -23.5328 -23.4711 -23.4204 -23.3871 -23.3211 -23.2632 -23.2602
   -23.1537 -23.1133 -10.8333  -6.4776  -3.5962  -3.4000  -0.3712   0.1503
     1.0989   2.3066

          k = 0.1250 0.3127 0.0000 ( 20122 PWs)   bands (ev):

   -23.5453 -23.5325 -23.4774 -23.4156 -23.3808 -23.3127 -23.2703 -23.2664
   -23.1571 -23.1050 -10.6661  -6.8361  -3.6390  -3.4783  -0.5654   0.2222
     1.4080   2.3758

          k = 0.1250 0.3608 0.0000 ( 20112 PWs)   bands (ev):

   -23.5487 -23.5313 -23.4839 -23.4105 -23.3764 -23.3053 -23.2766 -23.2699
   -23.1615 -23.0976 -10.4766  -7.2049  -3.8058  -3.3670  -0.7903   0.2259
     1.7531   2.4434

          k = 0.1250 0.4090 0.0000 ( 20146 PWs)   bands (ev):

   -23.5514 -23.5294 -23.4902 -23.4053 -23.3743 -23.3003 -23.2820 -23.2691
   -23.1668 -23.0914 -10.2699  -7.5666  -3.9498  -3.2202  -1.0274   0.2023
     2.0421   2.4683

          k = 0.1250 0.4571 0.0000 ( 20145 PWs)   bands (ev):

   -23.5535 -23.5268 -23.4962 -23.4004 -23.3745 -23.2981 -23.2865 -23.2644
   -23.1725 -23.0865 -10.0568  -7.9022  -4.0601  -3.0611  -1.2571   0.1712
     2.2195   2.5281

          k = 0.1250 0.5052 0.0000 ( 20141 PWs)   bands (ev):

   -23.5548 -23.5240 -23.5013 -23.3958 -23.3764 -23.2968 -23.2901 -23.2587
   -23.1775 -23.0832  -9.8601  -8.1833  -4.1344  -2.9139  -1.4530   0.1444
     2.2573   2.7152

          k = 0.1250 0.5533 0.0000 ( 20145 PWs)   bands (ev):

   -23.5554 -23.5219 -23.5046 -23.3926 -23.3784 -23.2953 -23.2928 -23.2550
   -23.1806 -23.0815  -9.7290  -8.3575  -4.1717  -2.8183  -1.5736   0.1293
     2.2530   2.9321

          k = 0.1667 0.2887 0.0000 ( 20113 PWs)   bands (ev):

   -23.5458 -23.5322 -23.4768 -23.4166 -23.3784 -23.3149 -23.2698 -23.2659
   -23.1584 -23.1042 -10.6794  -6.8007  -3.6498  -3.5071  -0.5185   0.4400
     1.1662   2.3794

          k = 0.1667 0.3368 0.0000 ( 20110 PWs)   bands (ev):

   -23.5499 -23.5308 -23.4829 -23.4119 -23.3709 -23.3099 -23.2758 -23.2694
   -23.1643 -23.0958 -10.5013  -7.1419  -3.8731  -3.3847  -0.7162   0.5976
     1.4203   2.4455

          k = 0.1667 0.3849 0.0000 ( 20115 PWs)   bands (ev):

   -23.5536 -23.5289 -23.4891 -23.4068 -23.3656 -23.3067 -23.2811 -23.2692
   -23.1711 -23.0884 -10.3027  -7.4870  -4.0629  -3.2334  -0.9420   0.6385
     1.7941   2.3727

          k = 0.1667 0.4330 0.0000 ( 20139 PWs)   bands (ev):

   -23.5565 -23.5264 -23.4949 -23.4014 -23.3634 -23.3048 -23.2859 -23.2654
   -23.1784 -23.0823 -10.0902  -7.8212  -4.2133  -3.0643  -1.1770   0.6380
     2.1607   2.2631

          k = 0.1667 0.4811 0.0000 ( 20145 PWs)   bands (ev):

   -23.5586 -23.5236 -23.5002 -23.3961 -23.3639 -23.3030 -23.2901 -23.2598
   -23.1855 -23.0777  -9.8780  -8.1244  -4.3216  -2.8933  -1.3993   0.6269
     2.1526   2.5066

          k = 0.1667 0.5292 0.0000 ( 20147 PWs)   bands (ev):

   -23.5599 -23.5209 -23.5043 -23.3919 -23.3659 -23.3005 -23.2939 -23.2548
   -23.1910 -23.0749  -9.6997  -8.3589  -4.3868  -2.7511  -1.5738   0.6169
     2.0912   2.7993

          k = 0.1667 0.5774 0.0000 ( 20135 PWs)   bands (ev):

   -23.5603 -23.5197 -23.5060 -23.3901 -23.3671 -23.2979 -23.2968 -23.2527
   -23.1932 -23.0740  -9.6233  -8.4543  -4.4086  -2.6914  -1.6446   0.6130
     2.0701   2.9656

          k = 0.2083 0.3608 0.0000 ( 20119 PWs)   bands (ev):

   -23.5543 -23.5287 -23.4887 -23.4073 -23.3619 -23.3097 -23.2809 -23.2692
   -23.1726 -23.0873 -10.3137  -7.4586  -4.1037  -3.2391  -0.9121   0.9307
     1.5414   2.4156

          k = 0.2083 0.4090 0.0000 ( 20133 PWs)   bands (ev):

   -23.5581 -23.5262 -23.4943 -23.4019 -23.3551 -23.3108 -23.2856 -23.2659
   -23.1817 -23.0800 -10.1074  -7.7758  -4.2975  -3.0691  -1.1316   1.0874
     1.8582   2.2439

          k = 0.2083 0.4571 0.0000 ( 20137 PWs)   bands (ev):

   -23.5611 -23.5234 -23.4994 -23.3963 -23.3519 -23.3106 -23.2901 -23.2606
   -23.1908 -23.0742  -9.8907  -8.0804  -4.4463  -2.8867  -1.3568   1.1334
     2.0699   2.2825

          k = 0.2083 0.5052 0.0000 ( 20163 PWs)   bands (ev):

   -23.5632 -23.5205 -23.5038 -23.3913 -23.3523 -23.3080 -23.2946 -23.2548
   -23.1991 -23.0702  -9.6828  -8.3490  -4.5466  -2.7116  -1.5631   1.1489
     1.9628   2.6523

          k = 0.2083 0.5533 0.0000 ( 20157 PWs)   bands (ev):

   -23.5643 -23.5184 -23.5068 -23.3881 -23.3538 -23.3038 -23.2991 -23.2507
   -23.2044 -23.0681  -9.5345  -8.5284  -4.5969  -2.5885  -1.7027   1.1548
     1.9034   2.9407

          k = 0.2500 0.4330 0.0000 ( 20149 PWs)   bands (ev):

   -23.5620 -23.5233 -23.4992 -23.3964 -23.3459 -23.3151 -23.2901 -23.2609
   -23.1927 -23.0730  -9.8952  -8.0641  -4.4900  -2.8855  -1.3408   1.4526
     2.0264   2.0880

          k = 0.2500 0.4811 0.0000 ( 20153 PWs)   bands (ev):

   -23.5650 -23.5204 -23.5035 -23.3911 -23.3406 -23.3163 -23.2949 -23.2549
   -23.2033 -23.0677  -9.6755  -8.3400  -4.6316  -2.6940  -1.5533   1.6123
     1.9422   2.3954

          k = 0.2500 0.5292 0.0000 ( 20133 PWs)   bands (ev):

   -23.5669 -23.5177 -23.5071 -23.3870 -23.3402 -23.3124 -23.3003 -23.2492
   -23.2122 -23.0645  -9.4743  -8.5757  -4.7178  -2.5200  -1.7411   1.6784
     1.8289   2.7984

          k = 0.2500 0.5774 0.0000 ( 20123 PWs)   bands (ev):

   -23.5675 -23.5164 -23.5087 -23.3853 -23.3408 -23.3065 -23.3061 -23.2464
   -23.2161 -23.0634  -9.3759  -8.6858  -4.7467  -2.4362  -1.8298   1.7249
     1.7608   3.0125

          k = 0.2917 0.5052 0.0000 ( 20137 PWs)   bands (ev):

   -23.5678 -23.5176 -23.5071 -23.3866 -23.3310 -23.3197 -23.3007 -23.2486
   -23.2151 -23.0632  -9.4528  -8.5922  -4.7594  -2.4958  -1.7547   1.7284
     2.1286   2.5613

          k = 0.2917 0.5533 0.0000 ( 20132 PWs)   bands (ev):

   -23.5692 -23.5151 -23.5099 -23.3838 -23.3282 -23.3155 -23.3077 -23.2425
   -23.2241 -23.0609  -9.2560  -8.8037  -4.8245  -2.3228  -1.9294   1.6851
     2.2648   2.8573

          k = 0.3333 0.5774 0.0000 ( 20133 PWs)   bands (ev):

   -23.5700 -23.5126 -23.5126 -23.3827 -23.3187 -23.3161 -23.3161 -23.2343
   -23.2343 -23.0597  -9.0314  -9.0313  -4.8607  -2.1245  -2.1245   1.6520
     2.6938   2.6938

     the Fermi energy is    -2.1261 ev

!    total energy              =    -326.41774141 Ry
     estimated scf accuracy    <       0.00000074 Ry
     smearing contrib. (-TS)   =       0.00288599 Ry
     internal energy E=F+TS    =    -326.42062740 Ry

     The total energy is F=E-TS. E is the sum of the following terms:
     one-electron contribution =    -856.47661079 Ry
     hartree contribution      =     435.94302546 Ry
     xc contribution           =     -95.00850739 Ry
     ewald contribution        =     189.12146532 Ry

     convergence has been achieved in   7 iterations

     Writing output data file ../tmp/stanene.save/

     init_run     :      5.89s CPU      6.23s WALL (       1 calls)
     electrons    :    124.42s CPU    128.96s WALL (       1 calls)

     Called by init_run:
     wfcinit      :      4.50s CPU      4.73s WALL (       1 calls)
     potinit      :      0.51s CPU      0.56s WALL (       1 calls)
     hinit0       :      0.39s CPU      0.39s WALL (       1 calls)

     Called by electrons:
     c_bands      :    106.17s CPU    108.56s WALL (       7 calls)
     sum_band     :     14.03s CPU     15.18s WALL (       7 calls)
     v_of_rho     :      1.64s CPU      1.77s WALL (       8 calls)
     newd         :      2.60s CPU      3.52s WALL (       8 calls)
     mix_rho      :      0.23s CPU      0.23s WALL (       7 calls)

     Called by c_bands:
     init_us_2    :      0.85s CPU      0.86s WALL (     915 calls)
     cegterg      :    102.66s CPU    105.02s WALL (     427 calls)

     Called by *egterg:
     cdiaghg      :      1.58s CPU      1.60s WALL (    2293 calls)
     h_psi        :     63.97s CPU     66.39s WALL (    2354 calls)
     s_psi        :      4.58s CPU      4.60s WALL (    2354 calls)
     g_psi        :      0.41s CPU      0.41s WALL (    1866 calls)

     Called by h_psi:
     h_psi:calbec :      8.20s CPU      8.39s WALL (    2354 calls)
     vloc_psi     :     50.86s CPU     53.04s WALL (    2354 calls)
     add_vuspsi   :      4.66s CPU      4.71s WALL (    2354 calls)

     General routines
     calbec       :     10.57s CPU     10.85s WALL (    2781 calls)
     fft          :      1.58s CPU      1.68s WALL (     102 calls)
     ffts         :      0.04s CPU      0.04s WALL (      15 calls)
     fftw         :     53.68s CPU     55.97s WALL (   54510 calls)
     interpolate  :      0.17s CPU      0.20s WALL (       8 calls)

     Parallel routines
     fft_scatt_xy :      4.92s CPU      5.22s WALL (   54627 calls)
     fft_scatt_yz :     29.55s CPU     30.56s WALL (   54627 calls)

     PWSCF        :   2m10.56s CPU   2m15.72s WALL


   This run was terminated on:  23:17:56  23Jan2024            

=------------------------------------------------------------------------------=
   JOB DONE.
=------------------------------------------------------------------------------=
