
     Program PWSCF v.6.7MaX starts on 23Jan2024 at 23:17:56 

     This program is part of the open-source Quantum ESPRESSO suite
     for quantum simulation of materials; please cite
         "P. Giannozzi et al., J. Phys.:Condens. Matter 21 395502 (2009);
         "P. Giannozzi et al., J. Phys.:Condens. Matter 29 465901 (2017);
          URL http://www.quantum-espresso.org", 
     in publications or presentations arising from this work. More details at
     http://www.quantum-espresso.org/quote

     Parallel version (MPI), running on     6 processors

     MPI processes distributed on     1 nodes
     R & G space division:  proc/nbgrp/npool/nimage =       6
     Waiting for input...
     Reading input from standard input

     Current dimensions of program PWSCF are:
     Max number of different atomic species (ntypx) = 10
     Max number of k-points (npk) =  40000
     Max angular momentum in pseudopotentials (lmaxx) =  3

     Subspace diagonalization in iterative solution of the eigenvalue problem:
     one sub-group per band group will be used
     scalapack distributed-memory algorithm (size of sub-group:  2*  2 procs)


     Parallelization info
     --------------------
     sticks:   dense  smooth     PW     G-vecs:    dense   smooth      PW
     Min         431     214     61                75909    26818    4015
     Max         432     215     62                75924    26841    4025
     Sum        2587    1285    367               455489   160939   24117



     bravais-lattice index     =            4
     lattice parameter (alat)  =       8.8506  a.u.
     unit-cell volume          =    2563.9136 (a.u.)^3
     number of atoms/cell      =            2
     number of atomic types    =            1
     number of electrons       =        28.00
     number of Kohn-Sham states=           18
     kinetic-energy cutoff     =      60.0000  Ry
     charge density cutoff     =     480.0000  Ry
     scf convergence threshold =      1.0E-06
     mixing beta               =       0.7000
     number of iterations used =            8  plain     mixing
     Exchange-correlation= SLA  PW   PBE  PBE
                           (   1   4   3   4   0   0   0)

     celldm(1)=   8.850584  celldm(2)=   0.000000  celldm(3)=   4.270286
     celldm(4)=   0.000000  celldm(5)=   0.000000  celldm(6)=   0.000000

     crystal axes: (cart. coord. in units of alat)
               a(1) = (   1.000000   0.000000   0.000000 )  
               a(2) = (  -0.500000   0.866025   0.000000 )  
               a(3) = (   0.000000   0.000000   4.270286 )  

     reciprocal axes: (cart. coord. in units 2 pi/alat)
               b(1) = (  1.000000  0.577350 -0.000000 )  
               b(2) = (  0.000000  1.154701  0.000000 )  
               b(3) = (  0.000000 -0.000000  0.234176 )  


     PseudoPot. # 1 for Sn read from file:
     ../pseudo/Sn_pbe_v1.uspp.F.UPF
     MD5 check sum: 4cf58ce39ec5d5d420df3dd08604eb00
     Pseudo is Ultrasoft + core correction, Zval = 14.0
     Generated by new atomic code, or converted to UPF format
     Using radial grid of  891 points,  6 beta functions with: 
                l(1) =   0
                l(2) =   0
                l(3) =   1
                l(4) =   1
                l(5) =   2
                l(6) =   2
     Q(r) pseudized with  6 coefficients,  rinner =    1.200   1.200   1.200
                                                       1.200   1.200

     atomic species   valence    mass     pseudopotential
        Sn            14.00   118.71000     Sn( 1.00)

      6 Sym. Ops. (no inversion) found



   Cartesian axes

     site n.     atom                  positions (alat units)
         1           Sn  tau(   1) = (   0.0000000   0.5773503   2.1351428  )
         2           Sn  tau(   2) = (   0.5000000   0.2886751   1.9552503  )

     number of k points=    61  Methfessel-Paxton smearing, width (Ry)=  0.0400
                       cart. coord. in units 2pi/alat
        k(    1) = (   0.0000000   0.0000000   0.0000000), wk =   0.0034722
        k(    2) = (   0.0000000   0.0481125   0.0000000), wk =   0.0208333
        k(    3) = (   0.0000000   0.0962250   0.0000000), wk =   0.0208333
        k(    4) = (   0.0000000   0.1443376   0.0000000), wk =   0.0208333
        k(    5) = (   0.0000000   0.1924501   0.0000000), wk =   0.0208333
        k(    6) = (   0.0000000   0.2405626   0.0000000), wk =   0.0208333
        k(    7) = (   0.0000000   0.2886751   0.0000000), wk =   0.0208333
        k(    8) = (   0.0000000   0.3367877   0.0000000), wk =   0.0208333
        k(    9) = (   0.0000000   0.3849002   0.0000000), wk =   0.0208333
        k(   10) = (   0.0000000   0.4330127   0.0000000), wk =   0.0208333
        k(   11) = (   0.0000000   0.4811252   0.0000000), wk =   0.0208333
        k(   12) = (   0.0000000   0.5292377   0.0000000), wk =   0.0208333
        k(   13) = (   0.0000000  -0.5773503   0.0000000), wk =   0.0104167
        k(   14) = (   0.0416667   0.0721688   0.0000000), wk =   0.0208333
        k(   15) = (   0.0416667   0.1202813   0.0000000), wk =   0.0416667
        k(   16) = (   0.0416667   0.1683938   0.0000000), wk =   0.0416667
        k(   17) = (   0.0416667   0.2165064   0.0000000), wk =   0.0416667
        k(   18) = (   0.0416667   0.2646189   0.0000000), wk =   0.0416667
        k(   19) = (   0.0416667   0.3127314   0.0000000), wk =   0.0416667
        k(   20) = (   0.0416667   0.3608439   0.0000000), wk =   0.0416667
        k(   21) = (   0.0416667   0.4089564   0.0000000), wk =   0.0416667
        k(   22) = (   0.0416667   0.4570690   0.0000000), wk =   0.0416667
        k(   23) = (   0.0416667   0.5051815   0.0000000), wk =   0.0416667
        k(   24) = (   0.0416667   0.5532940   0.0000000), wk =   0.0416667
        k(   25) = (   0.0833333   0.1443376   0.0000000), wk =   0.0208333
        k(   26) = (   0.0833333   0.1924501   0.0000000), wk =   0.0416667
        k(   27) = (   0.0833333   0.2405626   0.0000000), wk =   0.0416667
        k(   28) = (   0.0833333   0.2886751   0.0000000), wk =   0.0416667
        k(   29) = (   0.0833333   0.3367877   0.0000000), wk =   0.0416667
        k(   30) = (   0.0833333   0.3849002   0.0000000), wk =   0.0416667
        k(   31) = (   0.0833333   0.4330127   0.0000000), wk =   0.0416667
        k(   32) = (   0.0833333   0.4811252   0.0000000), wk =   0.0416667
        k(   33) = (   0.0833333   0.5292377   0.0000000), wk =   0.0416667
        k(   34) = (   0.0833333   0.5773503   0.0000000), wk =   0.0208333
        k(   35) = (   0.1250000   0.2165064   0.0000000), wk =   0.0208333
        k(   36) = (   0.1250000   0.2646189   0.0000000), wk =   0.0416667
        k(   37) = (   0.1250000   0.3127314   0.0000000), wk =   0.0416667
        k(   38) = (   0.1250000   0.3608439   0.0000000), wk =   0.0416667
        k(   39) = (   0.1250000   0.4089564   0.0000000), wk =   0.0416667
        k(   40) = (   0.1250000   0.4570690   0.0000000), wk =   0.0416667
        k(   41) = (   0.1250000   0.5051815   0.0000000), wk =   0.0416667
        k(   42) = (   0.1250000   0.5532940   0.0000000), wk =   0.0416667
        k(   43) = (   0.1666667   0.2886751   0.0000000), wk =   0.0208333
        k(   44) = (   0.1666667   0.3367877   0.0000000), wk =   0.0416667
        k(   45) = (   0.1666667   0.3849002   0.0000000), wk =   0.0416667
        k(   46) = (   0.1666667   0.4330127   0.0000000), wk =   0.0416667
        k(   47) = (   0.1666667   0.4811252   0.0000000), wk =   0.0416667
        k(   48) = (   0.1666667   0.5292377   0.0000000), wk =   0.0416667
        k(   49) = (   0.1666667   0.5773503   0.0000000), wk =   0.0208333
        k(   50) = (   0.2083333   0.3608439   0.0000000), wk =   0.0208333
        k(   51) = (   0.2083333   0.4089564   0.0000000), wk =   0.0416667
        k(   52) = (   0.2083333   0.4570690   0.0000000), wk =   0.0416667
        k(   53) = (   0.2083333   0.5051815   0.0000000), wk =   0.0416667
        k(   54) = (   0.2083333   0.5532940   0.0000000), wk =   0.0416667
        k(   55) = (   0.2500000   0.4330127   0.0000000), wk =   0.0208333
        k(   56) = (   0.2500000   0.4811252   0.0000000), wk =   0.0416667
        k(   57) = (   0.2500000   0.5292377   0.0000000), wk =   0.0416667
        k(   58) = (   0.2500000   0.5773503   0.0000000), wk =   0.0208333
        k(   59) = (   0.2916667   0.5051815   0.0000000), wk =   0.0208333
        k(   60) = (   0.2916667   0.5532940   0.0000000), wk =   0.0416667
        k(   61) = (   0.3333333   0.5773503   0.0000000), wk =   0.0069444

     Dense  grid:   455489 G-vectors     FFT dimensions: (  64,  64, 270)

     Smooth grid:   160939 G-vectors     FFT dimensions: (  45,  45, 192)

     Estimated max dynamical RAM per process >     322.30 MB

     Estimated total dynamical RAM >       1.89 GB

     Initial potential from superposition of free atoms

     starting charge   25.99991, renormalised to   28.00000

     negative rho (up, down):  5.949E-04 0.000E+00
     Starting wfcs are   18 randomized atomic wfcs

     total cpu time spent up to now is        6.6 secs

     Self-consistent Calculation

     iteration #  1     ecut=    60.00 Ry     beta= 0.70
     Davidson diagonalization with overlap
     ethr =  1.00E-02,  avg # of iterations =  8.8

     negative rho (up, down):  3.215E-04 0.000E+00

     total cpu time spent up to now is       29.1 secs

     total energy              =    -325.45670770 Ry
     estimated scf accuracy    <       2.46954416 Ry

     iteration #  2     ecut=    60.00 Ry     beta= 0.70
     Davidson diagonalization with overlap
     ethr =  8.82E-03,  avg # of iterations =  2.1

     negative rho (up, down):  1.780E-04 0.000E+00

     total cpu time spent up to now is       46.9 secs

     total energy              =    -326.35693254 Ry
     estimated scf accuracy    <       0.38433882 Ry

     iteration #  3     ecut=    60.00 Ry     beta= 0.70
     Davidson diagonalization with overlap
     ethr =  1.37E-03,  avg # of iterations =  2.1

     negative rho (up, down):  9.711E-05 0.000E+00

     total cpu time spent up to now is       65.4 secs

     total energy              =    -326.41519629 Ry
     estimated scf accuracy    <       0.00631204 Ry

     iteration #  4     ecut=    60.00 Ry     beta= 0.70
     Davidson diagonalization with overlap
     c_bands:  1 eigenvalues not converged
     ethr =  2.25E-05,  avg # of iterations =  8.6

     negative rho (up, down):  8.520E-05 0.000E+00

     total cpu time spent up to now is       87.8 secs

     total energy              =    -326.41723702 Ry
     estimated scf accuracy    <       0.00034758 Ry

     iteration #  5     ecut=    60.00 Ry     beta= 0.70
     Davidson diagonalization with overlap
     ethr =  1.24E-06,  avg # of iterations =  5.3

     negative rho (up, down):  8.516E-05 0.000E+00

     total cpu time spent up to now is      107.0 secs

     total energy              =    -326.41727425 Ry
     estimated scf accuracy    <       0.00003972 Ry

     iteration #  6     ecut=    60.00 Ry     beta= 0.70
     Davidson diagonalization with overlap
     ethr =  1.42E-07,  avg # of iterations =  2.1

     negative rho (up, down):  8.550E-05 0.000E+00

     total cpu time spent up to now is      120.4 secs

     total energy              =    -326.41728321 Ry
     estimated scf accuracy    <       0.00001443 Ry

     iteration #  7     ecut=    60.00 Ry     beta= 0.70
     Davidson diagonalization with overlap
     ethr =  5.15E-08,  avg # of iterations =  2.0

     negative rho (up, down):  8.573E-05 0.000E+00

     total cpu time spent up to now is      134.8 secs

     End of self-consistent calculation

          k = 0.0000 0.0000 0.0000 ( 20025 PWs)   bands (ev):

   -23.5220 -23.5220 -23.4439 -23.4439 -23.4295 -23.3596 -23.2170 -23.2170
   -23.1609 -23.1609 -11.3675  -5.2711  -2.3977  -2.3977  -1.9386  -0.0627
     1.0972   1.0972

          k = 0.0000 0.0481 0.0000 ( 20035 PWs)   bands (ev):

   -23.5229 -23.5227 -23.4456 -23.4427 -23.4271 -23.3584 -23.2195 -23.2193
   -23.1596 -23.1586 -11.3528  -5.2941  -2.6872  -2.4303  -1.6309  -0.0616
     1.0671   1.1529

          k = 0.0000 0.0962 0.0000 ( 20005 PWs)   bands (ev):

   -23.5254 -23.5248 -23.4495 -23.4393 -23.4216 -23.3546 -23.2260 -23.2255
   -23.1564 -23.1528 -11.3088  -5.3716  -3.0741  -2.5208  -1.1950  -0.0615
     1.0117   1.3123

          k = 0.0000 0.1443 0.0000 ( 20065 PWs)   bands (ev):

   -23.5286 -23.5278 -23.4543 -23.4344 -23.4151 -23.3485 -23.2346 -23.2339
   -23.1526 -23.1452 -11.2357  -5.5242  -3.3843  -2.6525  -0.8311  -0.0712
     1.0157   1.5551

          k = 0.0000 0.1925 0.0000 ( 20113 PWs)   bands (ev):

   -23.5319 -23.5311 -23.4597 -23.4284 -23.4087 -23.3401 -23.2440 -23.2433
   -23.1494 -23.1370 -11.1340  -5.7678  -3.5798  -2.8066  -0.6305  -0.0941
     1.1601   2.1787

          k = 0.0000 0.2406 0.0000 ( 20071 PWs)   bands (ev):

   -23.5346 -23.5344 -23.4656 -23.4221 -23.4034 -23.3298 -23.2535 -23.2526
   -23.1472 -23.1290 -11.0046  -6.0936  -3.6606  -2.9670  -0.6179  -0.1229
     1.4186   2.2898

          k = 0.0000 0.2887 0.0000 ( 20087 PWs)   bands (ev):

   -23.5374 -23.5363 -23.4719 -23.4158 -23.3995 -23.3182 -23.2626 -23.2609
   -23.1464 -23.1216 -10.8490  -6.4719  -3.6513  -3.1220  -0.7233  -0.1707
     1.6540   2.4650

          k = 0.0000 0.3368 0.0000 ( 20109 PWs)   bands (ev):

   -23.5400 -23.5368 -23.4784 -23.4101 -23.3971 -23.3064 -23.2708 -23.2676
   -23.1470 -23.1149 -10.6695  -6.8717  -3.5803  -3.2631  -0.8773  -0.2509
     1.8076   2.6674

          k = 0.0000 0.3849 0.0000 ( 20145 PWs)   bands (ev):

   -23.5420 -23.5360 -23.4851 -23.4051 -23.3961 -23.2961 -23.2778 -23.2714
   -23.1488 -23.1093 -10.4704  -7.2685  -3.4705  -3.3846  -1.0477  -0.3550
     1.9389   2.8826

          k = 0.0000 0.4330 0.0000 ( 20161 PWs)   bands (ev):

   -23.5436 -23.5340 -23.4916 -23.4010 -23.3960 -23.2903 -23.2835 -23.2700
   -23.1515 -23.1047 -10.2600  -7.6418  -3.4824  -3.3417  -1.2188  -0.4624
     2.0872   3.1013

          k = 0.0000 0.4811 0.0000 ( 20157 PWs)   bands (ev):

   -23.5447 -23.5313 -23.4977 -23.3981 -23.3963 -23.2895 -23.2877 -23.2643
   -23.1545 -23.1014 -10.0548  -7.9674  -3.5540  -3.2155  -1.3740  -0.5523
     2.2519   3.2809

          k = 0.0000 0.5292 0.0000 ( 20142 PWs)   bands (ev):

   -23.5453 -23.5285 -23.5025 -23.3967 -23.3963 -23.2902 -23.2899 -23.2591
   -23.1568 -23.0994  -9.8895  -8.2065  -3.5976  -3.1188  -1.4883  -0.6106
     2.4021   3.3382

          k = 0.0000-0.5774 0.0000 ( 20152 PWs)   bands (ev):

   -23.5455 -23.5272 -23.5044 -23.3969 -23.3957 -23.2911 -23.2902 -23.2571
   -23.1577 -23.0988  -9.8221  -8.2987  -3.6123  -3.0817  -1.5315  -0.6306
     2.4696   3.3917

          k = 0.0417 0.0722 0.0000 ( 20017 PWs)   bands (ev):

   -23.5245 -23.5242 -23.4483 -23.4405 -23.4232 -23.3559 -23.2241 -23.2234
   -23.1575 -23.1544 -11.3234  -5.3444  -2.9734  -2.4961  -1.3051  -0.0610
     1.0148   1.2692

          k = 0.0417 0.1203 0.0000 ( 20039 PWs)   bands (ev):

   -23.5273 -23.5268 -23.4523 -23.4367 -23.4171 -23.3510 -23.2316 -23.2304
   -23.1544 -23.1475 -11.2648  -5.4598  -3.2812  -2.6171  -0.9236  -0.0667
     0.9610   1.4908

          k = 0.0417 0.1684 0.0000 ( 20081 PWs)   bands (ev):

   -23.5307 -23.5298 -23.4573 -23.4316 -23.4103 -23.3438 -23.2406 -23.2391
   -23.1514 -23.1395 -11.1774  -5.6595  -3.5097  -2.7711  -0.6282  -0.0876
     0.9993   1.7856

          k = 0.0417 0.2165 0.0000 ( 20075 PWs)   bands (ev):

   -23.5342 -23.5325 -23.4629 -23.4259 -23.4040 -23.3347 -23.2499 -23.2483
   -23.1491 -23.1312 -11.0618  -5.9466  -3.6314  -2.9381  -0.5151  -0.1130
     1.1890   2.1010

          k = 0.0417 0.2646 0.0000 ( 20107 PWs)   bands (ev):

   -23.5375 -23.5346 -23.4690 -23.4199 -23.3989 -23.3240 -23.2589 -23.2572
   -23.1481 -23.1233 -10.9192  -6.2999  -3.6574  -3.1026  -0.5790  -0.1347
     1.4665   2.2947

          k = 0.0417 0.3127 0.0000 ( 20105 PWs)   bands (ev):

   -23.5404 -23.5355 -23.4754 -23.4141 -23.3952 -23.3125 -23.2673 -23.2648
   -23.1485 -23.1160 -10.7513  -6.6886  -3.6154  -3.2516  -0.7289  -0.1809
     1.7027   2.4997

          k = 0.0417 0.3608 0.0000 ( 20127 PWs)   bands (ev):

   -23.5428 -23.5353 -23.4820 -23.4089 -23.3930 -23.3015 -23.2748 -23.2701
   -23.1501 -23.1097 -10.5614  -7.0860  -3.5457  -3.3617  -0.9099  -0.2571
     1.8678   2.7234

          k = 0.0417 0.4090 0.0000 ( 20135 PWs)   bands (ev):

   -23.5446 -23.5340 -23.4886 -23.4045 -23.3921 -23.2935 -23.2810 -23.2713
   -23.1528 -23.1044 -10.3552  -7.4708  -3.5563  -3.3394  -1.0996  -0.3478
     2.0169   2.9084

          k = 0.0417 0.4571 0.0000 ( 20146 PWs)   bands (ev):

   -23.5459 -23.5316 -23.4950 -23.4009 -23.3923 -23.2908 -23.2858 -23.2671
   -23.1561 -23.1004 -10.1442  -7.8219  -3.6261  -3.2223  -1.2820  -0.4331
     2.1761   3.0358

          k = 0.0417 0.5052 0.0000 ( 20148 PWs)   bands (ev):

   -23.5467 -23.5288 -23.5005 -23.3981 -23.3931 -23.2909 -23.2889 -23.2612
   -23.1591 -23.0976  -9.9524  -8.1098  -3.6809  -3.1066  -1.4345  -0.4973
     2.3318   3.1227

          k = 0.0417 0.5533 0.0000 ( 20150 PWs)   bands (ev):

   -23.5471 -23.5266 -23.5041 -23.3960 -23.3943 -23.2915 -23.2904 -23.2574
   -23.1610 -23.0962  -9.8274  -8.2835  -3.7094  -3.0340  -1.5251  -0.5313
     2.4379   3.2216

          k = 0.0833 0.1443 0.0000 ( 20061 PWs)   bands (ev):

   -23.5301 -23.5295 -23.4562 -23.4333 -23.4106 -23.3452 -23.2395 -23.2375
   -23.1525 -23.1400 -11.1919  -5.6235  -3.4744  -2.7753  -0.6004  -0.0882
     0.9030   1.7875

          k = 0.0833 0.1925 0.0000 ( 20087 PWs)   bands (ev):

   -23.5339 -23.5317 -23.4611 -23.4288 -23.4033 -23.3375 -23.2482 -23.2458
   -23.1513 -23.1315 -11.0905  -5.8701  -3.5968  -2.9623  -0.3449  -0.1294
     0.9385   2.2343

          k = 0.0833 0.2406 0.0000 ( 20121 PWs)   bands (ev):

   -23.5378 -23.5333 -23.4668 -23.4238 -23.3965 -23.3283 -23.2568 -23.2544
   -23.1510 -23.1230 -10.9615  -6.1880  -3.6383  -3.1518  -0.3440  -0.0933
     1.1341   2.2456

          k = 0.0833 0.2887 0.0000 ( 20106 PWs)   bands (ev):

   -23.5415 -23.5341 -23.4731 -23.4184 -23.3909 -23.3181 -23.2650 -23.2623
   -23.1519 -23.1149 -10.8062  -6.5520  -3.6186  -3.3213  -0.5066  -0.0553
     1.4355   2.3320

          k = 0.0833 0.3368 0.0000 ( 20114 PWs)   bands (ev):

   -23.5446 -23.5340 -23.4796 -23.4132 -23.3870 -23.3079 -23.2724 -23.2684
   -23.1541 -23.1076 -10.6270  -6.9365  -3.6049  -3.4125  -0.7117  -0.0704
     1.7236   2.4833

          k = 0.0833 0.3849 0.0000 ( 20126 PWs)   bands (ev):

   -23.5471 -23.5328 -23.4862 -23.4083 -23.3848 -23.2993 -23.2788 -23.2711
   -23.1575 -23.1014 -10.4279  -7.3202  -3.6906  -3.3432  -0.9326  -0.1162
     1.9422   2.6425

          k = 0.0833 0.4330 0.0000 ( 20149 PWs)   bands (ev):

   -23.5490 -23.5308 -23.4926 -23.4037 -23.3844 -23.2948 -23.2840 -23.2689
   -23.1616 -23.0963 -10.2168  -7.6838  -3.7903  -3.2116  -1.1528  -0.1724
     2.1183   2.7411

          k = 0.0833 0.4811 0.0000 ( 20151 PWs)   bands (ev):

   -23.5503 -23.5281 -23.4985 -23.3996 -23.3855 -23.2937 -23.2879 -23.2633
   -23.1657 -23.0926 -10.0099  -8.0040  -3.8673  -3.0724  -1.3520  -0.2230
     2.2650   2.8269

          k = 0.0833 0.5292 0.0000 ( 20157 PWs)   bands (ev):

   -23.5510 -23.5255 -23.5031 -23.3962 -23.3874 -23.2934 -23.2906 -23.2582
   -23.1689 -23.0904  -9.8418  -8.2416  -3.9147  -2.9608  -1.4997  -0.2573
     2.3588   2.9598

          k = 0.0833 0.5774 0.0000 ( 20154 PWs)   bands (ev):

   -23.5512 -23.5243 -23.5050 -23.3944 -23.3887 -23.2930 -23.2919 -23.2562
   -23.1701 -23.0896  -9.7724  -8.3344  -3.9307  -2.9164  -1.5561  -0.2694
     2.3883   3.0813

          k = 0.1250 0.2165 0.0000 ( 20099 PWs)   bands (ev):

   -23.5379 -23.5329 -23.4660 -23.4253 -23.3954 -23.3300 -23.2561 -23.2533
   -23.1522 -23.1227 -10.9756  -6.1489  -3.6236  -3.1844  -0.2279  -0.0447
     0.9398   2.2541

          k = 0.1250 0.2646 0.0000 ( 20119 PWs)   bands (ev):

   -23.5421 -23.5334 -23.4717 -23.4210 -23.3877 -23.3217 -23.2638 -23.2608
   -23.1543 -23.1139 -10.8338  -6.4780  -3.5965  -3.4005  -0.3715   0.1499
     1.0986   2.3065

          k = 0.1250 0.3127 0.0000 ( 20122 PWs)   bands (ev):

   -23.5460 -23.5331 -23.4780 -23.4161 -23.3814 -23.3133 -23.2709 -23.2670
   -23.1577 -23.1056 -10.6666  -6.8366  -3.6394  -3.4786  -0.5657   0.2219
     1.4078   2.3757

          k = 0.1250 0.3608 0.0000 ( 20112 PWs)   bands (ev):

   -23.5493 -23.5319 -23.4845 -23.4111 -23.3770 -23.3059 -23.2772 -23.2705
   -23.1621 -23.0982 -10.4770  -7.2053  -3.8062  -3.3673  -0.7906   0.2256
     1.7528   2.4432

          k = 0.1250 0.4090 0.0000 ( 20146 PWs)   bands (ev):

   -23.5521 -23.5300 -23.4908 -23.4059 -23.3749 -23.3009 -23.2826 -23.2697
   -23.1675 -23.0920 -10.2704  -7.5670  -3.9502  -3.2205  -1.0276   0.2020
     2.0419   2.4681

          k = 0.1250 0.4571 0.0000 ( 20145 PWs)   bands (ev):

   -23.5541 -23.5274 -23.4968 -23.4010 -23.3751 -23.2987 -23.2871 -23.2650
   -23.1731 -23.0872 -10.0572  -7.9027  -4.0605  -3.0614  -1.2574   0.1709
     2.2194   2.5279

          k = 0.1250 0.5052 0.0000 ( 20141 PWs)   bands (ev):

   -23.5554 -23.5246 -23.5019 -23.3964 -23.3770 -23.2974 -23.2907 -23.2593
   -23.1781 -23.0838  -9.8605  -8.1838  -4.1348  -2.9142  -1.4533   0.1441
     2.2571   2.7151

          k = 0.1250 0.5533 0.0000 ( 20145 PWs)   bands (ev):

   -23.5561 -23.5225 -23.5052 -23.3932 -23.3790 -23.2959 -23.2934 -23.2556
   -23.1812 -23.0821  -9.7294  -8.3579  -4.1721  -2.8187  -1.5739   0.1289
     2.2528   2.9319

          k = 0.1667 0.2887 0.0000 ( 20113 PWs)   bands (ev):

   -23.5465 -23.5328 -23.4774 -23.4172 -23.3790 -23.3155 -23.2704 -23.2665
   -23.1590 -23.1049 -10.6798  -6.8012  -3.6502  -3.5074  -0.5187   0.4396
     1.1659   2.3793

          k = 0.1667 0.3368 0.0000 ( 20110 PWs)   bands (ev):

   -23.5506 -23.5315 -23.4835 -23.4125 -23.3715 -23.3105 -23.2764 -23.2700
   -23.1649 -23.0964 -10.5018  -7.1423  -3.8735  -3.3850  -0.7164   0.5972
     1.4201   2.4455

          k = 0.1667 0.3849 0.0000 ( 20115 PWs)   bands (ev):

   -23.5542 -23.5295 -23.4897 -23.4074 -23.3663 -23.3073 -23.2817 -23.2698
   -23.1717 -23.0890 -10.3031  -7.4874  -4.0633  -3.2337  -0.9422   0.6381
     1.7939   2.3725

          k = 0.1667 0.4330 0.0000 ( 20139 PWs)   bands (ev):

   -23.5571 -23.5270 -23.4955 -23.4020 -23.3640 -23.3055 -23.2865 -23.2660
   -23.1790 -23.0829 -10.0906  -7.8217  -4.2137  -3.0646  -1.1773   0.6376
     2.1606   2.2629

          k = 0.1667 0.4811 0.0000 ( 20145 PWs)   bands (ev):

   -23.5592 -23.5242 -23.5008 -23.3967 -23.3645 -23.3036 -23.2907 -23.2604
   -23.1861 -23.0784  -9.8785  -8.1248  -4.3220  -2.8936  -1.3995   0.6266
     2.1524   2.5064

          k = 0.1667 0.5292 0.0000 ( 20147 PWs)   bands (ev):

   -23.5605 -23.5215 -23.5049 -23.3924 -23.3665 -23.3011 -23.2945 -23.2554
   -23.1917 -23.0756  -9.7001  -8.3594  -4.3872  -2.7514  -1.5741   0.6166
     2.0910   2.7992

          k = 0.1667 0.5774 0.0000 ( 20135 PWs)   bands (ev):

   -23.5610 -23.5203 -23.5066 -23.3906 -23.3677 -23.2986 -23.2974 -23.2533
   -23.1938 -23.0746  -9.6237  -8.4548  -4.4090  -2.6917  -1.6449   0.6127
     2.0698   2.9655

          k = 0.2083 0.3608 0.0000 ( 20119 PWs)   bands (ev):

   -23.5549 -23.5293 -23.4893 -23.4079 -23.3625 -23.3103 -23.2815 -23.2698
   -23.1732 -23.0879 -10.3142  -7.4590  -4.1041  -3.2394  -0.9124   0.9303
     1.5412   2.4154

          k = 0.2083 0.4090 0.0000 ( 20133 PWs)   bands (ev):

   -23.5587 -23.5268 -23.4949 -23.4025 -23.3557 -23.3114 -23.2862 -23.2665
   -23.1823 -23.0806 -10.1079  -7.7763  -4.2979  -3.0694  -1.1319   1.0870
     1.8580   2.2436

          k = 0.2083 0.4571 0.0000 ( 20137 PWs)   bands (ev):

   -23.5618 -23.5240 -23.5000 -23.3969 -23.3525 -23.3112 -23.2907 -23.2612
   -23.1914 -23.0748  -9.8911  -8.0808  -4.4467  -2.8870  -1.3571   1.1331
     2.0697   2.2823

          k = 0.2083 0.5052 0.0000 ( 20163 PWs)   bands (ev):

   -23.5639 -23.5211 -23.5044 -23.3919 -23.3529 -23.3086 -23.2952 -23.2554
   -23.1997 -23.0708  -9.6833  -8.3495  -4.5469  -2.7119  -1.5634   1.1486
     1.9626   2.6522

          k = 0.2083 0.5533 0.0000 ( 20157 PWs)   bands (ev):

   -23.5650 -23.5190 -23.5074 -23.3887 -23.3544 -23.3044 -23.2997 -23.2513
   -23.2050 -23.0688  -9.5350  -8.5289  -4.5973  -2.5888  -1.7030   1.1545
     1.9032   2.9405

          k = 0.2500 0.4330 0.0000 ( 20149 PWs)   bands (ev):

   -23.5626 -23.5239 -23.4997 -23.3970 -23.3465 -23.3157 -23.2907 -23.2615
   -23.1933 -23.0736  -9.8957  -8.0645  -4.4904  -2.8858  -1.3411   1.4522
     2.0262   2.0877

          k = 0.2500 0.4811 0.0000 ( 20153 PWs)   bands (ev):

   -23.5657 -23.5210 -23.5041 -23.3917 -23.3412 -23.3169 -23.2955 -23.2555
   -23.2040 -23.0683  -9.6759  -8.3405  -4.6320  -2.6943  -1.5536   1.6120
     1.9420   2.3952

          k = 0.2500 0.5292 0.0000 ( 20133 PWs)   bands (ev):

   -23.5675 -23.5183 -23.5076 -23.3876 -23.3408 -23.3130 -23.3009 -23.2498
   -23.2128 -23.0651  -9.4748  -8.5762  -4.7182  -2.5203  -1.7414   1.6781
     1.8286   2.7980

          k = 0.2500 0.5774 0.0000 ( 20123 PWs)   bands (ev):

   -23.5682 -23.5170 -23.5093 -23.3859 -23.3414 -23.3071 -23.3067 -23.2470
   -23.2167 -23.0640  -9.3764  -8.6862  -4.7471  -2.4365  -1.8301   1.7245
     1.7605   3.0121

          k = 0.2917 0.5052 0.0000 ( 20137 PWs)   bands (ev):

   -23.5684 -23.5182 -23.5077 -23.3872 -23.3316 -23.3204 -23.3013 -23.2492
   -23.2157 -23.0638  -9.4533  -8.5926  -4.7598  -2.4961  -1.7550   1.7282
     2.1282   2.5611

          k = 0.2917 0.5533 0.0000 ( 20132 PWs)   bands (ev):

   -23.5699 -23.5157 -23.5105 -23.3844 -23.3288 -23.3161 -23.3083 -23.2431
   -23.2248 -23.0615  -9.2564  -8.8042  -4.8249  -2.3231  -1.9297   1.6848
     2.2645   2.8570

          k = 0.3333 0.5774 0.0000 ( 20133 PWs)   bands (ev):

   -23.5707 -23.5132 -23.5132 -23.3833 -23.3193 -23.3168 -23.3167 -23.2349
   -23.2349 -23.0603  -9.0318  -9.0317  -4.8611  -2.1248  -2.1248   1.6517
     2.6935   2.6935

     the Fermi energy is    -2.1358 ev

!    total energy              =    -326.41728519 Ry
     estimated scf accuracy    <       0.00000068 Ry
     smearing contrib. (-TS)   =       0.00399433 Ry
     internal energy E=F+TS    =    -326.42127951 Ry

     The total energy is F=E-TS. E is the sum of the following terms:
     one-electron contribution =    -856.47538301 Ry
     hartree contribution      =     435.94091635 Ry
     xc contribution           =     -95.00827818 Ry
     ewald contribution        =     189.12146532 Ry

     convergence has been achieved in   7 iterations

     Writing output data file ../tmp/stanene.save/

     init_run     :      6.26s CPU      6.51s WALL (       1 calls)
     electrons    :    122.96s CPU    128.26s WALL (       1 calls)

     Called by init_run:
     wfcinit      :      5.00s CPU      5.14s WALL (       1 calls)
     potinit      :      0.36s CPU      0.37s WALL (       1 calls)
     hinit0       :      0.43s CPU      0.44s WALL (       1 calls)

     Called by electrons:
     c_bands      :    104.62s CPU    108.03s WALL (       7 calls)
     sum_band     :     14.43s CPU     15.57s WALL (       7 calls)
     v_of_rho     :      1.41s CPU      1.54s WALL (       8 calls)
     newd         :      2.61s CPU      3.27s WALL (       8 calls)
     mix_rho      :      0.18s CPU      0.21s WALL (       7 calls)

     Called by c_bands:
     init_us_2    :      0.91s CPU      0.92s WALL (     915 calls)
     cegterg      :    101.27s CPU    104.67s WALL (     427 calls)

     Called by *egterg:
     cdiaghg      :      1.61s CPU      1.63s WALL (    2314 calls)
     h_psi        :     64.15s CPU     67.51s WALL (    2375 calls)
     s_psi        :      4.61s CPU      4.64s WALL (    2375 calls)
     g_psi        :      0.41s CPU      0.41s WALL (    1887 calls)

     Called by h_psi:
     h_psi:calbec :      8.02s CPU      8.36s WALL (    2375 calls)
     vloc_psi     :     51.18s CPU     54.10s WALL (    2375 calls)
     add_vuspsi   :      4.69s CPU      4.79s WALL (    2375 calls)

     General routines
     calbec       :     10.42s CPU     10.83s WALL (    2802 calls)
     fft          :      1.52s CPU      1.60s WALL (     102 calls)
     ffts         :      0.03s CPU      0.03s WALL (      15 calls)
     fftw         :     54.37s CPU     57.25s WALL (   54548 calls)
     interpolate  :      0.11s CPU      0.11s WALL (       8 calls)

     Parallel routines
     fft_scatt_xy :      4.88s CPU      5.29s WALL (   54665 calls)
     fft_scatt_yz :     30.24s CPU     31.41s WALL (   54665 calls)

     PWSCF        :   2m 9.44s CPU   2m15.26s WALL


   This run was terminated on:  23:20:11  23Jan2024            

=------------------------------------------------------------------------------=
   JOB DONE.
=------------------------------------------------------------------------------=
