
     Program PWSCF v.6.7MaX starts on 23Jan2024 at 23: 4:21 

     This program is part of the open-source Quantum ESPRESSO suite
     for quantum simulation of materials; please cite
         "P. Giannozzi et al., J. Phys.:Condens. Matter 21 395502 (2009);
         "P. Giannozzi et al., J. Phys.:Condens. Matter 29 465901 (2017);
          URL http://www.quantum-espresso.org", 
     in publications or presentations arising from this work. More details at
     http://www.quantum-espresso.org/quote

     Parallel version (MPI), running on     6 processors

     MPI processes distributed on     1 nodes
     R & G space division:  proc/nbgrp/npool/nimage =       6
     Waiting for input...
     Reading input from standard input

     Current dimensions of program PWSCF are:
     Max number of different atomic species (ntypx) = 10
     Max number of k-points (npk) =  40000
     Max angular momentum in pseudopotentials (lmaxx) =  3

     Subspace diagonalization in iterative solution of the eigenvalue problem:
     one sub-group per band group will be used
     scalapack distributed-memory algorithm (size of sub-group:  2*  2 procs)


     Parallelization info
     --------------------
     sticks:   dense  smooth     PW     G-vecs:    dense   smooth      PW
     Min         431     214     61                75909    26818    4015
     Max         432     215     62                75924    26841    4025
     Sum        2587    1285    367               455489   160939   24117



     bravais-lattice index     =            4
     lattice parameter (alat)  =       8.8506  a.u.
     unit-cell volume          =    2563.9136 (a.u.)^3
     number of atoms/cell      =            2
     number of atomic types    =            1
     number of electrons       =        28.00
     number of Kohn-Sham states=           18
     kinetic-energy cutoff     =      60.0000  Ry
     charge density cutoff     =     480.0000  Ry
     scf convergence threshold =      1.0E-06
     mixing beta               =       0.7000
     number of iterations used =            8  plain     mixing
     Exchange-correlation= SLA  PW   PBE  PBE
                           (   1   4   3   4   0   0   0)

     celldm(1)=   8.850584  celldm(2)=   0.000000  celldm(3)=   4.270286
     celldm(4)=   0.000000  celldm(5)=   0.000000  celldm(6)=   0.000000

     crystal axes: (cart. coord. in units of alat)
               a(1) = (   1.000000   0.000000   0.000000 )  
               a(2) = (  -0.500000   0.866025   0.000000 )  
               a(3) = (   0.000000   0.000000   4.270286 )  

     reciprocal axes: (cart. coord. in units 2 pi/alat)
               b(1) = (  1.000000  0.577350 -0.000000 )  
               b(2) = (  0.000000  1.154701  0.000000 )  
               b(3) = (  0.000000 -0.000000  0.234176 )  


     PseudoPot. # 1 for Sn read from file:
     ../pseudo/Sn_pbe_v1.uspp.F.UPF
     MD5 check sum: 4cf58ce39ec5d5d420df3dd08604eb00
     Pseudo is Ultrasoft + core correction, Zval = 14.0
     Generated by new atomic code, or converted to UPF format
     Using radial grid of  891 points,  6 beta functions with: 
                l(1) =   0
                l(2) =   0
                l(3) =   1
                l(4) =   1
                l(5) =   2
                l(6) =   2
     Q(r) pseudized with  6 coefficients,  rinner =    1.200   1.200   1.200
                                                       1.200   1.200

     atomic species   valence    mass     pseudopotential
        Sn            14.00   118.71000     Sn( 1.00)

      6 Sym. Ops. (no inversion) found



   Cartesian axes

     site n.     atom                  positions (alat units)
         1           Sn  tau(   1) = (   0.0000000   0.5773503   2.1351428  )
         2           Sn  tau(   2) = (   0.5000000   0.2886751   1.9552503  )

     number of k points=    61  Methfessel-Paxton smearing, width (Ry)=  0.0100
                       cart. coord. in units 2pi/alat
        k(    1) = (   0.0000000   0.0000000   0.0000000), wk =   0.0034722
        k(    2) = (   0.0000000   0.0481125   0.0000000), wk =   0.0208333
        k(    3) = (   0.0000000   0.0962250   0.0000000), wk =   0.0208333
        k(    4) = (   0.0000000   0.1443376   0.0000000), wk =   0.0208333
        k(    5) = (   0.0000000   0.1924501   0.0000000), wk =   0.0208333
        k(    6) = (   0.0000000   0.2405626   0.0000000), wk =   0.0208333
        k(    7) = (   0.0000000   0.2886751   0.0000000), wk =   0.0208333
        k(    8) = (   0.0000000   0.3367877   0.0000000), wk =   0.0208333
        k(    9) = (   0.0000000   0.3849002   0.0000000), wk =   0.0208333
        k(   10) = (   0.0000000   0.4330127   0.0000000), wk =   0.0208333
        k(   11) = (   0.0000000   0.4811252   0.0000000), wk =   0.0208333
        k(   12) = (   0.0000000   0.5292377   0.0000000), wk =   0.0208333
        k(   13) = (   0.0000000  -0.5773503   0.0000000), wk =   0.0104167
        k(   14) = (   0.0416667   0.0721688   0.0000000), wk =   0.0208333
        k(   15) = (   0.0416667   0.1202813   0.0000000), wk =   0.0416667
        k(   16) = (   0.0416667   0.1683938   0.0000000), wk =   0.0416667
        k(   17) = (   0.0416667   0.2165064   0.0000000), wk =   0.0416667
        k(   18) = (   0.0416667   0.2646189   0.0000000), wk =   0.0416667
        k(   19) = (   0.0416667   0.3127314   0.0000000), wk =   0.0416667
        k(   20) = (   0.0416667   0.3608439   0.0000000), wk =   0.0416667
        k(   21) = (   0.0416667   0.4089564   0.0000000), wk =   0.0416667
        k(   22) = (   0.0416667   0.4570690   0.0000000), wk =   0.0416667
        k(   23) = (   0.0416667   0.5051815   0.0000000), wk =   0.0416667
        k(   24) = (   0.0416667   0.5532940   0.0000000), wk =   0.0416667
        k(   25) = (   0.0833333   0.1443376   0.0000000), wk =   0.0208333
        k(   26) = (   0.0833333   0.1924501   0.0000000), wk =   0.0416667
        k(   27) = (   0.0833333   0.2405626   0.0000000), wk =   0.0416667
        k(   28) = (   0.0833333   0.2886751   0.0000000), wk =   0.0416667
        k(   29) = (   0.0833333   0.3367877   0.0000000), wk =   0.0416667
        k(   30) = (   0.0833333   0.3849002   0.0000000), wk =   0.0416667
        k(   31) = (   0.0833333   0.4330127   0.0000000), wk =   0.0416667
        k(   32) = (   0.0833333   0.4811252   0.0000000), wk =   0.0416667
        k(   33) = (   0.0833333   0.5292377   0.0000000), wk =   0.0416667
        k(   34) = (   0.0833333   0.5773503   0.0000000), wk =   0.0208333
        k(   35) = (   0.1250000   0.2165064   0.0000000), wk =   0.0208333
        k(   36) = (   0.1250000   0.2646189   0.0000000), wk =   0.0416667
        k(   37) = (   0.1250000   0.3127314   0.0000000), wk =   0.0416667
        k(   38) = (   0.1250000   0.3608439   0.0000000), wk =   0.0416667
        k(   39) = (   0.1250000   0.4089564   0.0000000), wk =   0.0416667
        k(   40) = (   0.1250000   0.4570690   0.0000000), wk =   0.0416667
        k(   41) = (   0.1250000   0.5051815   0.0000000), wk =   0.0416667
        k(   42) = (   0.1250000   0.5532940   0.0000000), wk =   0.0416667
        k(   43) = (   0.1666667   0.2886751   0.0000000), wk =   0.0208333
        k(   44) = (   0.1666667   0.3367877   0.0000000), wk =   0.0416667
        k(   45) = (   0.1666667   0.3849002   0.0000000), wk =   0.0416667
        k(   46) = (   0.1666667   0.4330127   0.0000000), wk =   0.0416667
        k(   47) = (   0.1666667   0.4811252   0.0000000), wk =   0.0416667
        k(   48) = (   0.1666667   0.5292377   0.0000000), wk =   0.0416667
        k(   49) = (   0.1666667   0.5773503   0.0000000), wk =   0.0208333
        k(   50) = (   0.2083333   0.3608439   0.0000000), wk =   0.0208333
        k(   51) = (   0.2083333   0.4089564   0.0000000), wk =   0.0416667
        k(   52) = (   0.2083333   0.4570690   0.0000000), wk =   0.0416667
        k(   53) = (   0.2083333   0.5051815   0.0000000), wk =   0.0416667
        k(   54) = (   0.2083333   0.5532940   0.0000000), wk =   0.0416667
        k(   55) = (   0.2500000   0.4330127   0.0000000), wk =   0.0208333
        k(   56) = (   0.2500000   0.4811252   0.0000000), wk =   0.0416667
        k(   57) = (   0.2500000   0.5292377   0.0000000), wk =   0.0416667
        k(   58) = (   0.2500000   0.5773503   0.0000000), wk =   0.0208333
        k(   59) = (   0.2916667   0.5051815   0.0000000), wk =   0.0208333
        k(   60) = (   0.2916667   0.5532940   0.0000000), wk =   0.0416667
        k(   61) = (   0.3333333   0.5773503   0.0000000), wk =   0.0069444

     Dense  grid:   455489 G-vectors     FFT dimensions: (  64,  64, 270)

     Smooth grid:   160939 G-vectors     FFT dimensions: (  45,  45, 192)

     Estimated max dynamical RAM per process >     322.30 MB

     Estimated total dynamical RAM >       1.89 GB

     Initial potential from superposition of free atoms

     starting charge   25.99991, renormalised to   28.00000

     negative rho (up, down):  5.949E-04 0.000E+00
     Starting wfcs are   18 randomized atomic wfcs

     total cpu time spent up to now is        6.5 secs

     Self-consistent Calculation

     iteration #  1     ecut=    60.00 Ry     beta= 0.70
     Davidson diagonalization with overlap
     ethr =  1.00E-02,  avg # of iterations =  8.8

     negative rho (up, down):  3.228E-05 0.000E+00

     total cpu time spent up to now is       27.1 secs

     total energy              =    -325.45831883 Ry
     estimated scf accuracy    <       2.46738162 Ry

     iteration #  2     ecut=    60.00 Ry     beta= 0.70
     Davidson diagonalization with overlap
     ethr =  8.81E-03,  avg # of iterations =  2.1

     negative rho (up, down):  4.475E-05 0.000E+00

     total cpu time spent up to now is       43.9 secs

     total energy              =    -326.35856302 Ry
     estimated scf accuracy    <       0.38151574 Ry

     iteration #  3     ecut=    60.00 Ry     beta= 0.70
     Davidson diagonalization with overlap
     ethr =  1.36E-03,  avg # of iterations =  2.2

     negative rho (up, down):  6.449E-05 0.000E+00

     total cpu time spent up to now is       60.7 secs

     total energy              =    -326.41660935 Ry
     estimated scf accuracy    <       0.00621756 Ry

     iteration #  4     ecut=    60.00 Ry     beta= 0.70
     Davidson diagonalization with overlap
     c_bands:  1 eigenvalues not converged
     ethr =  2.22E-05,  avg # of iterations =  8.4

     negative rho (up, down):  8.177E-05 0.000E+00

     total cpu time spent up to now is       82.3 secs

     total energy              =    -326.41863137 Ry
     estimated scf accuracy    <       0.00033977 Ry

     iteration #  5     ecut=    60.00 Ry     beta= 0.70
     Davidson diagonalization with overlap
     c_bands:  1 eigenvalues not converged
     ethr =  1.21E-06,  avg # of iterations =  5.3

     negative rho (up, down):  8.317E-05 0.000E+00

     total cpu time spent up to now is      102.5 secs

     total energy              =    -326.41866589 Ry
     estimated scf accuracy    <       0.00003746 Ry

     iteration #  6     ecut=    60.00 Ry     beta= 0.70
     Davidson diagonalization with overlap
     ethr =  1.34E-07,  avg # of iterations =  2.2

     negative rho (up, down):  8.497E-05 0.000E+00

     total cpu time spent up to now is      118.0 secs

     total energy              =    -326.41867382 Ry
     estimated scf accuracy    <       0.00001481 Ry

     iteration #  7     ecut=    60.00 Ry     beta= 0.70
     Davidson diagonalization with overlap
     ethr =  5.29E-08,  avg # of iterations =  2.0

     negative rho (up, down):  8.563E-05 0.000E+00

     total cpu time spent up to now is      132.7 secs

     End of self-consistent calculation

          k = 0.0000 0.0000 0.0000 ( 20025 PWs)   bands (ev):

   -23.5286 -23.5286 -23.4501 -23.4501 -23.4350 -23.3650 -23.2235 -23.2235
   -23.1677 -23.1677 -11.3743  -5.2748  -2.4048  -2.4048  -1.9449  -0.0651
     1.0906   1.0906

          k = 0.0000 0.0481 0.0000 ( 20035 PWs)   bands (ev):

   -23.5295 -23.5294 -23.4518 -23.4490 -23.4327 -23.3638 -23.2260 -23.2258
   -23.1664 -23.1654 -11.3596  -5.2979  -2.6939  -2.4373  -1.6375  -0.0640
     1.0606   1.1464

          k = 0.0000 0.0962 0.0000 ( 20005 PWs)   bands (ev):

   -23.5320 -23.5315 -23.4555 -23.4456 -23.4274 -23.3601 -23.2325 -23.2319
   -23.1632 -23.1596 -11.3155  -5.3756  -3.0805  -2.5279  -1.2017  -0.0640
     1.0054   1.3057

          k = 0.0000 0.1443 0.0000 ( 20065 PWs)   bands (ev):

   -23.5352 -23.5345 -23.4601 -23.4406 -23.4211 -23.3540 -23.2410 -23.2403
   -23.1594 -23.1520 -11.2424  -5.5286  -3.3902  -2.6596  -0.8378  -0.0739
     1.0097   1.5486

          k = 0.0000 0.1925 0.0000 ( 20113 PWs)   bands (ev):

   -23.5384 -23.5378 -23.4654 -23.4346 -23.4148 -23.3457 -23.2505 -23.2496
   -23.1562 -23.1439 -11.1407  -5.7728  -3.5852  -2.8136  -0.6371  -0.0970
     1.1546   2.1786

          k = 0.0000 0.2406 0.0000 ( 20071 PWs)   bands (ev):

   -23.5412 -23.5411 -23.4713 -23.4283 -23.4096 -23.3355 -23.2599 -23.2588
   -23.1540 -23.1360 -11.0114  -6.0991  -3.6655  -2.9741  -0.6242  -0.1264
     1.4140   2.2893

          k = 0.0000 0.2887 0.0000 ( 20087 PWs)   bands (ev):

   -23.5442 -23.5427 -23.4775 -23.4220 -23.4058 -23.3241 -23.2689 -23.2671
   -23.1532 -23.1285 -10.8557  -6.4778  -3.6558  -3.1291  -0.7291  -0.1748
     1.6509   2.4646

          k = 0.0000 0.3368 0.0000 ( 20109 PWs)   bands (ev):

   -23.5468 -23.5432 -23.4840 -23.4162 -23.4035 -23.3124 -23.2771 -23.2736
   -23.1538 -23.1219 -10.6762  -6.8778  -3.5846  -3.2702  -0.8826  -0.2556
     1.8054   2.6673

          k = 0.0000 0.3849 0.0000 ( 20145 PWs)   bands (ev):

   -23.5489 -23.5423 -23.4907 -23.4112 -23.4025 -23.3022 -23.2841 -23.2772
   -23.1557 -23.1163 -10.4772  -7.2748  -3.4747  -3.3916  -1.0526  -0.3604
     1.9371   2.8824

          k = 0.0000 0.4330 0.0000 ( 20161 PWs)   bands (ev):

   -23.5505 -23.5403 -23.4973 -23.4071 -23.4025 -23.2964 -23.2898 -23.2756
   -23.1584 -23.1118 -10.2667  -7.6482  -3.4895  -3.3458  -1.2232  -0.4683
     2.0855   3.1009

          k = 0.0000 0.4811 0.0000 ( 20157 PWs)   bands (ev):

   -23.5516 -23.5375 -23.5034 -23.4041 -23.4029 -23.2955 -23.2940 -23.2700
   -23.1614 -23.1085 -10.0615  -7.9739  -3.5611  -3.2195  -1.3780  -0.5585
     2.2503   3.2802

          k = 0.0000 0.5292 0.0000 ( 20142 PWs)   bands (ev):

   -23.5522 -23.5347 -23.5082 -23.4034 -23.4023 -23.2965 -23.2959 -23.2648
   -23.1638 -23.1065  -9.8962  -8.2130  -3.6047  -3.1229  -1.4921  -0.6170
     2.4002   3.3371

          k = 0.0000-0.5774 0.0000 ( 20152 PWs)   bands (ev):

   -23.5524 -23.5335 -23.5101 -23.4036 -23.4017 -23.2973 -23.2961 -23.2628
   -23.1647 -23.1058  -9.8287  -8.3053  -3.6193  -3.0858  -1.5352  -0.6372
     2.4676   3.3875

          k = 0.0417 0.0722 0.0000 ( 20017 PWs)   bands (ev):

   -23.5311 -23.5309 -23.4543 -23.4468 -23.4290 -23.3613 -23.2306 -23.2299
   -23.1643 -23.1613 -11.3302  -5.3484  -2.9799  -2.5031  -1.3118  -0.0635
     1.0084   1.2626

          k = 0.0417 0.1203 0.0000 ( 20039 PWs)   bands (ev):

   -23.5339 -23.5335 -23.4582 -23.4430 -23.4230 -23.3565 -23.2381 -23.2369
   -23.1612 -23.1544 -11.2716  -5.4641  -3.2873  -2.6242  -0.9304  -0.0693
     0.9549   1.4843

          k = 0.0417 0.1684 0.0000 ( 20081 PWs)   bands (ev):

   -23.5373 -23.5365 -23.4630 -23.4379 -23.4164 -23.3494 -23.2471 -23.2455
   -23.1582 -23.1464 -11.1842  -5.6643  -3.5153  -2.7782  -0.6349  -0.0904
     0.9934   1.7791

          k = 0.0417 0.2165 0.0000 ( 20075 PWs)   bands (ev):

   -23.5409 -23.5391 -23.4686 -23.4320 -23.4102 -23.3403 -23.2563 -23.2547
   -23.1559 -23.1381 -11.0686  -5.9519  -3.6364  -2.9452  -0.5215  -0.1163
     1.1837   2.0955

          k = 0.0417 0.2646 0.0000 ( 20107 PWs)   bands (ev):

   -23.5443 -23.5411 -23.4746 -23.4260 -23.4051 -23.3298 -23.2653 -23.2635
   -23.1549 -23.1302 -10.9259  -6.3057  -3.6621  -3.1096  -0.5848  -0.1387
     1.4622   2.2915

          k = 0.0417 0.3127 0.0000 ( 20105 PWs)   bands (ev):

   -23.5472 -23.5420 -23.4810 -23.4203 -23.4015 -23.3184 -23.2737 -23.2709
   -23.1553 -23.1230 -10.7581  -6.6946  -3.6199  -3.2586  -0.7341  -0.1856
     1.6999   2.4973

          k = 0.0417 0.3608 0.0000 ( 20127 PWs)   bands (ev):

   -23.5496 -23.5417 -23.4877 -23.4151 -23.3994 -23.3075 -23.2811 -23.2759
   -23.1570 -23.1167 -10.5681  -7.0922  -3.5504  -3.3682  -0.9147  -0.2624
     1.8658   2.7215

          k = 0.0417 0.4090 0.0000 ( 20135 PWs)   bands (ev):

   -23.5515 -23.5403 -23.4943 -23.4106 -23.3986 -23.2997 -23.2873 -23.2769
   -23.1597 -23.1115 -10.3619  -7.4771  -3.5627  -3.3441  -1.1041  -0.3536
     2.0152   2.9066

          k = 0.0417 0.4571 0.0000 ( 20146 PWs)   bands (ev):

   -23.5528 -23.5379 -23.5007 -23.4071 -23.3987 -23.2969 -23.2920 -23.2727
   -23.1630 -23.1074 -10.1509  -7.8284  -3.6330  -3.2265  -1.2861  -0.4393
     2.1744   3.0329

          k = 0.0417 0.5052 0.0000 ( 20148 PWs)   bands (ev):

   -23.5536 -23.5351 -23.5062 -23.4043 -23.3995 -23.2971 -23.2951 -23.2668
   -23.1660 -23.1047  -9.9591  -8.1163  -3.6878  -3.1108  -1.4384  -0.5038
     2.3300   3.1196

          k = 0.0417 0.5533 0.0000 ( 20150 PWs)   bands (ev):

   -23.5540 -23.5328 -23.5098 -23.4023 -23.4007 -23.2977 -23.2964 -23.2631
   -23.1679 -23.1033  -9.8341  -8.2901  -3.7163  -3.0382  -1.5289  -0.5379
     2.4358   3.2186

          k = 0.0833 0.1443 0.0000 ( 20061 PWs)   bands (ev):

   -23.5368 -23.5361 -23.4620 -23.4395 -23.4166 -23.3507 -23.2459 -23.2439
   -23.1593 -23.1469 -11.1987  -5.6282  -3.4801  -2.7823  -0.6072  -0.0910
     0.8970   1.7811

          k = 0.0833 0.1925 0.0000 ( 20087 PWs)   bands (ev):

   -23.5407 -23.5382 -23.4668 -23.4350 -23.4095 -23.3432 -23.2546 -23.2522
   -23.1581 -23.1385 -11.0973  -5.8753  -3.6020  -2.9693  -0.3515  -0.1326
     0.9329   2.2350

          k = 0.0833 0.2406 0.0000 ( 20121 PWs)   bands (ev):

   -23.5446 -23.5398 -23.4725 -23.4299 -23.4027 -23.3341 -23.2632 -23.2607
   -23.1578 -23.1300 -10.9683  -6.1936  -3.6431  -3.1589  -0.3489  -0.0982
     1.1289   2.2436

          k = 0.0833 0.2887 0.0000 ( 20106 PWs)   bands (ev):

   -23.5483 -23.5405 -23.4787 -23.4246 -23.3972 -23.3240 -23.2713 -23.2684
   -23.1587 -23.1219 -10.8129  -6.5579  -3.6232  -3.3282  -0.5111  -0.0608
     1.4311   2.3292

          k = 0.0833 0.3368 0.0000 ( 20114 PWs)   bands (ev):

   -23.5514 -23.5403 -23.4852 -23.4193 -23.3933 -23.3139 -23.2786 -23.2743
   -23.1609 -23.1147 -10.6337  -6.9427  -3.6104  -3.4183  -0.7160  -0.0762
     1.7205   2.4795

          k = 0.0833 0.3849 0.0000 ( 20126 PWs)   bands (ev):

   -23.5540 -23.5392 -23.4919 -23.4144 -23.3912 -23.3055 -23.2850 -23.2769
   -23.1643 -23.1084 -10.4346  -7.3265  -3.6972  -3.3478  -0.9367  -0.1223
     1.9401   2.6383

          k = 0.0833 0.4330 0.0000 ( 20149 PWs)   bands (ev):

   -23.5559 -23.5371 -23.4983 -23.4099 -23.3909 -23.3011 -23.2901 -23.2745
   -23.1684 -23.1034 -10.2235  -7.6903  -3.7972  -3.2158  -1.1567  -0.1787
     2.1165   2.7374

          k = 0.0833 0.4811 0.0000 ( 20151 PWs)   bands (ev):

   -23.5572 -23.5344 -23.5042 -23.4058 -23.3920 -23.2999 -23.2940 -23.2689
   -23.1725 -23.0997 -10.0166  -8.0105  -3.8741  -3.0766  -1.3558  -0.2295
     2.2630   2.8237

          k = 0.0833 0.5292 0.0000 ( 20157 PWs)   bands (ev):

   -23.5579 -23.5317 -23.5088 -23.4023 -23.3940 -23.2996 -23.2967 -23.2639
   -23.1758 -23.0974  -9.8484  -8.2482  -3.9216  -2.9649  -1.5034  -0.2639
     2.3564   2.9570

          k = 0.0833 0.5774 0.0000 ( 20154 PWs)   bands (ev):

   -23.5582 -23.5304 -23.5107 -23.4004 -23.3954 -23.2993 -23.2979 -23.2619
   -23.1770 -23.0967  -9.7791  -8.3410  -3.9376  -2.9205  -1.5598  -0.2760
     2.3856   3.0784

          k = 0.1250 0.2165 0.0000 ( 20099 PWs)   bands (ev):

   -23.5447 -23.5393 -23.4716 -23.4315 -23.4016 -23.3357 -23.2625 -23.2596
   -23.1590 -23.1297 -10.9824  -6.1545  -3.6284  -3.1914  -0.2311  -0.0514
     0.9345   2.2528

          k = 0.1250 0.2646 0.0000 ( 20119 PWs)   bands (ev):

   -23.5489 -23.5398 -23.4774 -23.4271 -23.3940 -23.3276 -23.2701 -23.2670
   -23.1611 -23.1209 -10.8405  -6.4839  -3.6010  -3.4074  -0.3750   0.1434
     1.0936   2.3045

          k = 0.1250 0.3127 0.0000 ( 20122 PWs)   bands (ev):

   -23.5528 -23.5394 -23.4836 -23.4223 -23.3877 -23.3194 -23.2771 -23.2731
   -23.1644 -23.1127 -10.6733  -6.8427  -3.6459  -3.4834  -0.5694   0.2155
     1.4033   2.3728

          k = 0.1250 0.3608 0.0000 ( 20112 PWs)   bands (ev):

   -23.5562 -23.5382 -23.4901 -23.4172 -23.3833 -23.3121 -23.2834 -23.2763
   -23.1689 -23.1053 -10.4837  -7.2116  -3.8131  -3.3716  -0.7944   0.2192
     1.7494   2.4394

          k = 0.1250 0.4090 0.0000 ( 20146 PWs)   bands (ev):

   -23.5590 -23.5362 -23.4965 -23.4121 -23.3813 -23.3073 -23.2887 -23.2753
   -23.1742 -23.0991 -10.2771  -7.5734  -3.9572  -3.2246  -1.0314   0.1955
     2.0396   2.4640

          k = 0.1250 0.4571 0.0000 ( 20145 PWs)   bands (ev):

   -23.5610 -23.5336 -23.5025 -23.4071 -23.3816 -23.3050 -23.2932 -23.2706
   -23.1798 -23.0943 -10.0639  -7.9091  -4.0675  -3.0654  -1.2612   0.1643
     2.2171   2.5244

          k = 0.1250 0.5052 0.0000 ( 20141 PWs)   bands (ev):

   -23.5624 -23.5308 -23.5076 -23.4025 -23.3836 -23.3036 -23.2968 -23.2650
   -23.1849 -23.0909  -9.8672  -8.1903  -4.1417  -2.9183  -1.4570   0.1374
     2.2541   2.7127

          k = 0.1250 0.5533 0.0000 ( 20145 PWs)   bands (ev):

   -23.5631 -23.5286 -23.5109 -23.3993 -23.3857 -23.3022 -23.2995 -23.2613
   -23.1880 -23.0893  -9.7361  -8.3645  -4.1790  -2.8227  -1.5776   0.1222
     2.2496   2.9297

          k = 0.1667 0.2887 0.0000 ( 20113 PWs)   bands (ev):

   -23.5533 -23.5391 -23.4831 -23.4233 -23.3853 -23.3216 -23.2766 -23.2726
   -23.1658 -23.1119 -10.6866  -6.8073  -3.6572  -3.5117  -0.5223   0.4329
     1.1611   2.3769

          k = 0.1667 0.3368 0.0000 ( 20110 PWs)   bands (ev):

   -23.5575 -23.5377 -23.4892 -23.4187 -23.3779 -23.3168 -23.2825 -23.2759
   -23.1716 -23.1035 -10.5085  -7.1486  -3.8805  -3.3891  -0.7201   0.5907
     1.4155   2.4425

          k = 0.1667 0.3849 0.0000 ( 20115 PWs)   bands (ev):

   -23.5611 -23.5357 -23.4953 -23.4135 -23.3726 -23.3138 -23.2879 -23.2755
   -23.1784 -23.0961 -10.3098  -7.4938  -4.0703  -3.2378  -0.9459   0.6316
     1.7899   2.3689

          k = 0.1667 0.4330 0.0000 ( 20139 PWs)   bands (ev):

   -23.5641 -23.5331 -23.5012 -23.4081 -23.3704 -23.3120 -23.2926 -23.2717
   -23.1857 -23.0900 -10.0973  -7.8281  -4.2207  -3.0686  -1.1810   0.6311
     2.1578   2.2590

          k = 0.1667 0.4811 0.0000 ( 20145 PWs)   bands (ev):

   -23.5662 -23.5303 -23.5065 -23.4028 -23.3711 -23.3100 -23.2968 -23.2661
   -23.1928 -23.0855  -9.8852  -8.1313  -4.3290  -2.8976  -1.4032   0.6199
     2.1489   2.5040

          k = 0.1667 0.5292 0.0000 ( 20147 PWs)   bands (ev):

   -23.5675 -23.5276 -23.5106 -23.3985 -23.3732 -23.3074 -23.3006 -23.2611
   -23.1983 -23.0827  -9.7068  -8.3659  -4.3942  -2.7553  -1.5778   0.6099
     2.0874   2.7972

          k = 0.1667 0.5774 0.0000 ( 20135 PWs)   bands (ev):

   -23.5680 -23.5263 -23.5123 -23.3967 -23.3744 -23.3048 -23.3035 -23.2590
   -23.2005 -23.0818  -9.6304  -8.4614  -4.4160  -2.6957  -1.6486   0.6060
     2.0663   2.9635

          k = 0.2083 0.3608 0.0000 ( 20119 PWs)   bands (ev):

   -23.5619 -23.5355 -23.4949 -23.4140 -23.3688 -23.3169 -23.2876 -23.2755
   -23.1799 -23.0950 -10.3209  -7.4654  -4.1111  -3.2434  -0.9160   0.9237
     1.5366   2.4117

          k = 0.2083 0.4090 0.0000 ( 20133 PWs)   bands (ev):

   -23.5657 -23.5329 -23.5005 -23.4086 -23.3620 -23.3181 -23.2923 -23.2721
   -23.1889 -23.0877 -10.1146  -7.7827  -4.3050  -3.0733  -1.1356   1.0805
     1.8536   2.2399

          k = 0.2083 0.4571 0.0000 ( 20137 PWs)   bands (ev):

   -23.5688 -23.5300 -23.5057 -23.4030 -23.3590 -23.3179 -23.2968 -23.2668
   -23.1980 -23.0819  -9.8978  -8.0873  -4.4537  -2.8909  -1.3608   1.1265
     2.0658   2.2788

          k = 0.2083 0.5052 0.0000 ( 20163 PWs)   bands (ev):

   -23.5709 -23.5271 -23.5101 -23.3980 -23.3595 -23.3151 -23.3013 -23.2611
   -23.2062 -23.0780  -9.6899  -8.3560  -4.5540  -2.7158  -1.5671   1.1420
     1.9588   2.6495

          k = 0.2083 0.5533 0.0000 ( 20157 PWs)   bands (ev):

   -23.5720 -23.5249 -23.5131 -23.3947 -23.3611 -23.3108 -23.3060 -23.2571
   -23.2115 -23.0759  -9.5416  -8.5354  -4.6043  -2.5927  -1.7067   1.1478
     1.8995   2.9383

          k = 0.2500 0.4330 0.0000 ( 20149 PWs)   bands (ev):

   -23.5697 -23.5300 -23.5054 -23.4031 -23.3528 -23.3225 -23.2969 -23.2671
   -23.1998 -23.0807  -9.9023  -8.0710  -4.4975  -2.8896  -1.3448   1.4458
     2.0216   2.0837

          k = 0.2500 0.4811 0.0000 ( 20153 PWs)   bands (ev):

   -23.5727 -23.5270 -23.5098 -23.3977 -23.3476 -23.3237 -23.3017 -23.2612
   -23.2104 -23.0755  -9.6826  -8.3470  -4.6390  -2.6982  -1.5573   1.6059
     1.9377   2.3909

          k = 0.2500 0.5292 0.0000 ( 20133 PWs)   bands (ev):

   -23.5746 -23.5243 -23.5134 -23.3936 -23.3474 -23.3196 -23.3072 -23.2556
   -23.2192 -23.0722  -9.4814  -8.5827  -4.7252  -2.5242  -1.7452   1.6722
     1.8242   2.7947

          k = 0.2500 0.5774 0.0000 ( 20123 PWs)   bands (ev):

   -23.5752 -23.5229 -23.5151 -23.3919 -23.3481 -23.3135 -23.3131 -23.2528
   -23.2231 -23.0711  -9.3830  -8.6928  -4.7541  -2.4403  -1.8338   1.7179
     1.7568   3.0090

          k = 0.2917 0.5052 0.0000 ( 20137 PWs)   bands (ev):

   -23.5755 -23.5241 -23.5135 -23.3932 -23.3380 -23.3272 -23.3076 -23.2550
   -23.2220 -23.0710  -9.4599  -8.5992  -4.7668  -2.4999  -1.7587   1.7243
     2.1218   2.5563

          k = 0.2917 0.5533 0.0000 ( 20132 PWs)   bands (ev):

   -23.5769 -23.5216 -23.5163 -23.3904 -23.3354 -23.3227 -23.3147 -23.2490
   -23.2310 -23.0687  -9.2630  -8.8107  -4.8319  -2.3269  -1.9334   1.6811
     2.2579   2.8518

          k = 0.3333 0.5774 0.0000 ( 20133 PWs)   bands (ev):

   -23.5777 -23.5190 -23.5190 -23.3892 -23.3254 -23.3235 -23.3233 -23.2409
   -23.2409 -23.0675  -9.0384  -9.0383  -4.8682  -2.1286  -2.1285   1.6480
     2.6873   2.6873

     the Fermi energy is    -2.1271 ev

!    total energy              =    -326.41867587 Ry
     estimated scf accuracy    <       0.00000076 Ry
     smearing contrib. (-TS)   =       0.00003647 Ry
     internal energy E=F+TS    =    -326.41871234 Ry

     The total energy is F=E-TS. E is the sum of the following terms:
     one-electron contribution =    -856.46079262 Ry
     hartree contribution      =     435.92887433 Ry
     xc contribution           =     -95.00825937 Ry
     ewald contribution        =     189.12146532 Ry

     convergence has been achieved in   7 iterations

     Writing output data file ../tmp/stanene.save/

     init_run     :      6.16s CPU      6.48s WALL (       1 calls)
     electrons    :    120.90s CPU    126.14s WALL (       1 calls)

     Called by init_run:
     wfcinit      :      4.99s CPU      5.18s WALL (       1 calls)
     potinit      :      0.38s CPU      0.42s WALL (       1 calls)
     hinit0       :      0.38s CPU      0.38s WALL (       1 calls)

     Called by electrons:
     c_bands      :    104.28s CPU    107.58s WALL (       7 calls)
     sum_band     :     12.84s CPU     14.19s WALL (       7 calls)
     v_of_rho     :      1.45s CPU      1.57s WALL (       8 calls)
     newd         :      2.35s CPU      2.92s WALL (       8 calls)
     mix_rho      :      0.22s CPU      0.23s WALL (       7 calls)

     Called by c_bands:
     init_us_2    :      0.84s CPU      0.85s WALL (     915 calls)
     cegterg      :    100.94s CPU    104.21s WALL (     427 calls)

     Called by *egterg:
     cdiaghg      :      1.51s CPU      1.53s WALL (    2312 calls)
     h_psi        :     64.27s CPU     67.48s WALL (    2373 calls)
     s_psi        :      4.58s CPU      4.61s WALL (    2373 calls)
     g_psi        :      0.42s CPU      0.42s WALL (    1885 calls)

     Called by h_psi:
     h_psi:calbec :      8.09s CPU      8.33s WALL (    2373 calls)
     vloc_psi     :     51.28s CPU     54.19s WALL (    2373 calls)
     add_vuspsi   :      4.66s CPU      4.73s WALL (    2373 calls)

     General routines
     calbec       :     10.31s CPU     10.61s WALL (    2800 calls)
     fft          :      1.45s CPU      1.53s WALL (     102 calls)
     ffts         :      0.04s CPU      0.04s WALL (      15 calls)
     fftw         :     53.39s CPU     56.26s WALL (   54432 calls)
     interpolate  :      0.15s CPU      0.15s WALL (       8 calls)

     Parallel routines
     fft_scatt_xy :      4.77s CPU      5.16s WALL (   54549 calls)
     fft_scatt_yz :     29.30s CPU     30.48s WALL (   54549 calls)

     PWSCF        :   2m 7.29s CPU   2m13.13s WALL


   This run was terminated on:  23: 6:34  23Jan2024            

=------------------------------------------------------------------------------=
   JOB DONE.
=------------------------------------------------------------------------------=
