
     Program PWSCF v.6.7MaX starts on 23Jan2024 at 23:33:15 

     This program is part of the open-source Quantum ESPRESSO suite
     for quantum simulation of materials; please cite
         "P. Giannozzi et al., J. Phys.:Condens. Matter 21 395502 (2009);
         "P. Giannozzi et al., J. Phys.:Condens. Matter 29 465901 (2017);
          URL http://www.quantum-espresso.org", 
     in publications or presentations arising from this work. More details at
     http://www.quantum-espresso.org/quote

     Parallel version (MPI), running on     6 processors

     MPI processes distributed on     1 nodes
     R & G space division:  proc/nbgrp/npool/nimage =       6
     Waiting for input...
     Reading input from standard input

     Current dimensions of program PWSCF are:
     Max number of different atomic species (ntypx) = 10
     Max number of k-points (npk) =  40000
     Max angular momentum in pseudopotentials (lmaxx) =  3

     Subspace diagonalization in iterative solution of the eigenvalue problem:
     one sub-group per band group will be used
     scalapack distributed-memory algorithm (size of sub-group:  2*  2 procs)


     Parallelization info
     --------------------
     sticks:   dense  smooth     PW     G-vecs:    dense   smooth      PW
     Min         431     214     61                75909    26818    4015
     Max         432     215     62                75924    26841    4025
     Sum        2587    1285    367               455489   160939   24117



     bravais-lattice index     =            4
     lattice parameter (alat)  =       8.8506  a.u.
     unit-cell volume          =    2563.9136 (a.u.)^3
     number of atoms/cell      =            2
     number of atomic types    =            1
     number of electrons       =        28.00
     number of Kohn-Sham states=           18
     kinetic-energy cutoff     =      60.0000  Ry
     charge density cutoff     =     480.0000  Ry
     scf convergence threshold =      1.0E-06
     mixing beta               =       0.7000
     number of iterations used =            8  plain     mixing
     Exchange-correlation= SLA  PW   PBE  PBE
                           (   1   4   3   4   0   0   0)

     celldm(1)=   8.850584  celldm(2)=   0.000000  celldm(3)=   4.270286
     celldm(4)=   0.000000  celldm(5)=   0.000000  celldm(6)=   0.000000

     crystal axes: (cart. coord. in units of alat)
               a(1) = (   1.000000   0.000000   0.000000 )  
               a(2) = (  -0.500000   0.866025   0.000000 )  
               a(3) = (   0.000000   0.000000   4.270286 )  

     reciprocal axes: (cart. coord. in units 2 pi/alat)
               b(1) = (  1.000000  0.577350 -0.000000 )  
               b(2) = (  0.000000  1.154701  0.000000 )  
               b(3) = (  0.000000 -0.000000  0.234176 )  


     PseudoPot. # 1 for Sn read from file:
     ../pseudo/Sn_pbe_v1.uspp.F.UPF
     MD5 check sum: 4cf58ce39ec5d5d420df3dd08604eb00
     Pseudo is Ultrasoft + core correction, Zval = 14.0
     Generated by new atomic code, or converted to UPF format
     Using radial grid of  891 points,  6 beta functions with: 
                l(1) =   0
                l(2) =   0
                l(3) =   1
                l(4) =   1
                l(5) =   2
                l(6) =   2
     Q(r) pseudized with  6 coefficients,  rinner =    1.200   1.200   1.200
                                                       1.200   1.200

     atomic species   valence    mass     pseudopotential
        Sn            14.00   118.71000     Sn( 1.00)

      6 Sym. Ops. (no inversion) found



   Cartesian axes

     site n.     atom                  positions (alat units)
         1           Sn  tau(   1) = (   0.0000000   0.5773503   2.1351428  )
         2           Sn  tau(   2) = (   0.5000000   0.2886751   1.9552503  )

     number of k points=    61  Marzari-Vanderbilt smearing, width (Ry)=  0.0350
                       cart. coord. in units 2pi/alat
        k(    1) = (   0.0000000   0.0000000   0.0000000), wk =   0.0034722
        k(    2) = (   0.0000000   0.0481125   0.0000000), wk =   0.0208333
        k(    3) = (   0.0000000   0.0962250   0.0000000), wk =   0.0208333
        k(    4) = (   0.0000000   0.1443376   0.0000000), wk =   0.0208333
        k(    5) = (   0.0000000   0.1924501   0.0000000), wk =   0.0208333
        k(    6) = (   0.0000000   0.2405626   0.0000000), wk =   0.0208333
        k(    7) = (   0.0000000   0.2886751   0.0000000), wk =   0.0208333
        k(    8) = (   0.0000000   0.3367877   0.0000000), wk =   0.0208333
        k(    9) = (   0.0000000   0.3849002   0.0000000), wk =   0.0208333
        k(   10) = (   0.0000000   0.4330127   0.0000000), wk =   0.0208333
        k(   11) = (   0.0000000   0.4811252   0.0000000), wk =   0.0208333
        k(   12) = (   0.0000000   0.5292377   0.0000000), wk =   0.0208333
        k(   13) = (   0.0000000  -0.5773503   0.0000000), wk =   0.0104167
        k(   14) = (   0.0416667   0.0721688   0.0000000), wk =   0.0208333
        k(   15) = (   0.0416667   0.1202813   0.0000000), wk =   0.0416667
        k(   16) = (   0.0416667   0.1683938   0.0000000), wk =   0.0416667
        k(   17) = (   0.0416667   0.2165064   0.0000000), wk =   0.0416667
        k(   18) = (   0.0416667   0.2646189   0.0000000), wk =   0.0416667
        k(   19) = (   0.0416667   0.3127314   0.0000000), wk =   0.0416667
        k(   20) = (   0.0416667   0.3608439   0.0000000), wk =   0.0416667
        k(   21) = (   0.0416667   0.4089564   0.0000000), wk =   0.0416667
        k(   22) = (   0.0416667   0.4570690   0.0000000), wk =   0.0416667
        k(   23) = (   0.0416667   0.5051815   0.0000000), wk =   0.0416667
        k(   24) = (   0.0416667   0.5532940   0.0000000), wk =   0.0416667
        k(   25) = (   0.0833333   0.1443376   0.0000000), wk =   0.0208333
        k(   26) = (   0.0833333   0.1924501   0.0000000), wk =   0.0416667
        k(   27) = (   0.0833333   0.2405626   0.0000000), wk =   0.0416667
        k(   28) = (   0.0833333   0.2886751   0.0000000), wk =   0.0416667
        k(   29) = (   0.0833333   0.3367877   0.0000000), wk =   0.0416667
        k(   30) = (   0.0833333   0.3849002   0.0000000), wk =   0.0416667
        k(   31) = (   0.0833333   0.4330127   0.0000000), wk =   0.0416667
        k(   32) = (   0.0833333   0.4811252   0.0000000), wk =   0.0416667
        k(   33) = (   0.0833333   0.5292377   0.0000000), wk =   0.0416667
        k(   34) = (   0.0833333   0.5773503   0.0000000), wk =   0.0208333
        k(   35) = (   0.1250000   0.2165064   0.0000000), wk =   0.0208333
        k(   36) = (   0.1250000   0.2646189   0.0000000), wk =   0.0416667
        k(   37) = (   0.1250000   0.3127314   0.0000000), wk =   0.0416667
        k(   38) = (   0.1250000   0.3608439   0.0000000), wk =   0.0416667
        k(   39) = (   0.1250000   0.4089564   0.0000000), wk =   0.0416667
        k(   40) = (   0.1250000   0.4570690   0.0000000), wk =   0.0416667
        k(   41) = (   0.1250000   0.5051815   0.0000000), wk =   0.0416667
        k(   42) = (   0.1250000   0.5532940   0.0000000), wk =   0.0416667
        k(   43) = (   0.1666667   0.2886751   0.0000000), wk =   0.0208333
        k(   44) = (   0.1666667   0.3367877   0.0000000), wk =   0.0416667
        k(   45) = (   0.1666667   0.3849002   0.0000000), wk =   0.0416667
        k(   46) = (   0.1666667   0.4330127   0.0000000), wk =   0.0416667
        k(   47) = (   0.1666667   0.4811252   0.0000000), wk =   0.0416667
        k(   48) = (   0.1666667   0.5292377   0.0000000), wk =   0.0416667
        k(   49) = (   0.1666667   0.5773503   0.0000000), wk =   0.0208333
        k(   50) = (   0.2083333   0.3608439   0.0000000), wk =   0.0208333
        k(   51) = (   0.2083333   0.4089564   0.0000000), wk =   0.0416667
        k(   52) = (   0.2083333   0.4570690   0.0000000), wk =   0.0416667
        k(   53) = (   0.2083333   0.5051815   0.0000000), wk =   0.0416667
        k(   54) = (   0.2083333   0.5532940   0.0000000), wk =   0.0416667
        k(   55) = (   0.2500000   0.4330127   0.0000000), wk =   0.0208333
        k(   56) = (   0.2500000   0.4811252   0.0000000), wk =   0.0416667
        k(   57) = (   0.2500000   0.5292377   0.0000000), wk =   0.0416667
        k(   58) = (   0.2500000   0.5773503   0.0000000), wk =   0.0208333
        k(   59) = (   0.2916667   0.5051815   0.0000000), wk =   0.0208333
        k(   60) = (   0.2916667   0.5532940   0.0000000), wk =   0.0416667
        k(   61) = (   0.3333333   0.5773503   0.0000000), wk =   0.0069444

     Dense  grid:   455489 G-vectors     FFT dimensions: (  64,  64, 270)

     Smooth grid:   160939 G-vectors     FFT dimensions: (  45,  45, 192)

     Estimated max dynamical RAM per process >     322.30 MB

     Estimated total dynamical RAM >       1.89 GB

     Initial potential from superposition of free atoms

     starting charge   25.99991, renormalised to   28.00000

     negative rho (up, down):  5.949E-04 0.000E+00
     Starting wfcs are   18 randomized atomic wfcs

     total cpu time spent up to now is        6.0 secs

     Self-consistent Calculation

     iteration #  1     ecut=    60.00 Ry     beta= 0.70
     Davidson diagonalization with overlap
     ethr =  1.00E-02,  avg # of iterations =  8.8

     negative rho (up, down):  2.857E-06 0.000E+00

     total cpu time spent up to now is       28.4 secs

     total energy              =    -325.45099551 Ry
     estimated scf accuracy    <       2.47687952 Ry

     iteration #  2     ecut=    60.00 Ry     beta= 0.70
     Davidson diagonalization with overlap
     ethr =  8.85E-03,  avg # of iterations =  2.1

     negative rho (up, down):  1.421E-05 0.000E+00

     total cpu time spent up to now is       46.1 secs

     total energy              =    -326.35562497 Ry
     estimated scf accuracy    <       0.39040301 Ry

     iteration #  3     ecut=    60.00 Ry     beta= 0.70
     Davidson diagonalization with overlap
     ethr =  1.39E-03,  avg # of iterations =  2.1

     negative rho (up, down):  4.552E-05 0.000E+00

     total cpu time spent up to now is       64.3 secs

     total energy              =    -326.41432900 Ry
     estimated scf accuracy    <       0.00639451 Ry

     iteration #  4     ecut=    60.00 Ry     beta= 0.70
     Davidson diagonalization with overlap
     c_bands:  1 eigenvalues not converged
     ethr =  2.28E-05,  avg # of iterations =  8.5

     negative rho (up, down):  7.824E-05 0.000E+00

     total cpu time spent up to now is       86.9 secs

     total energy              =    -326.41639005 Ry
     estimated scf accuracy    <       0.00034908 Ry

     iteration #  5     ecut=    60.00 Ry     beta= 0.70
     Davidson diagonalization with overlap
     c_bands:  1 eigenvalues not converged
     c_bands:  1 eigenvalues not converged
     ethr =  1.25E-06,  avg # of iterations =  6.0

     negative rho (up, down):  8.136E-05 0.000E+00

     total cpu time spent up to now is      107.8 secs

     total energy              =    -326.41643774 Ry
     estimated scf accuracy    <       0.00002559 Ry

     iteration #  6     ecut=    60.00 Ry     beta= 0.70
     Davidson diagonalization with overlap
     ethr =  9.14E-08,  avg # of iterations =  2.4

     negative rho (up, down):  8.471E-05 0.000E+00

     total cpu time spent up to now is      122.5 secs

     total energy              =    -326.41644464 Ry
     estimated scf accuracy    <       0.00001554 Ry

     iteration #  7     ecut=    60.00 Ry     beta= 0.70
     Davidson diagonalization with overlap
     ethr =  5.55E-08,  avg # of iterations =  2.0

     negative rho (up, down):  8.552E-05 0.000E+00

     total cpu time spent up to now is      137.1 secs

     End of self-consistent calculation

          k = 0.0000 0.0000 0.0000 ( 20025 PWs)   bands (ev):

   -23.5267 -23.5267 -23.4484 -23.4484 -23.4339 -23.3640 -23.2216 -23.2216
   -23.1656 -23.1656 -11.3715  -5.2748  -2.4017  -2.4017  -1.9422  -0.0653
     1.0942   1.0942

          k = 0.0000 0.0481 0.0000 ( 20035 PWs)   bands (ev):

   -23.5276 -23.5275 -23.4502 -23.4472 -23.4315 -23.3627 -23.2241 -23.2239
   -23.1643 -23.1634 -11.3568  -5.2979  -2.6910  -2.4342  -1.6347  -0.0641
     1.0642   1.1500

          k = 0.0000 0.0962 0.0000 ( 20005 PWs)   bands (ev):

   -23.5301 -23.5296 -23.4540 -23.4439 -23.4261 -23.3590 -23.2306 -23.2301
   -23.1611 -23.1575 -11.3128  -5.3754  -3.0778  -2.5247  -1.1988  -0.0641
     1.0086   1.3094

          k = 0.0000 0.1443 0.0000 ( 20065 PWs)   bands (ev):

   -23.5333 -23.5325 -23.4588 -23.4389 -23.4196 -23.3529 -23.2392 -23.2385
   -23.1573 -23.1499 -11.2397  -5.5281  -3.3878  -2.6564  -0.8348  -0.0740
     1.0125   1.5521

          k = 0.0000 0.1925 0.0000 ( 20113 PWs)   bands (ev):

   -23.5366 -23.5359 -23.4642 -23.4330 -23.4132 -23.3445 -23.2486 -23.2479
   -23.1541 -23.1418 -11.1380  -5.7718  -3.5832  -2.8104  -0.6340  -0.0970
     1.1568   2.1779

          k = 0.0000 0.2406 0.0000 ( 20071 PWs)   bands (ev):

   -23.5393 -23.5392 -23.4700 -23.4266 -23.4079 -23.3342 -23.2581 -23.2571
   -23.1519 -23.1338 -11.0086  -6.0976  -3.6639  -2.9708  -0.6213  -0.1260
     1.4155   2.2893

          k = 0.0000 0.2887 0.0000 ( 20087 PWs)   bands (ev):

   -23.5422 -23.5410 -23.4763 -23.4204 -23.4041 -23.3227 -23.2671 -23.2655
   -23.1511 -23.1263 -10.8530  -6.4760  -3.6546  -3.1257  -0.7266  -0.1740
     1.6515   2.4639

          k = 0.0000 0.3368 0.0000 ( 20109 PWs)   bands (ev):

   -23.5448 -23.5414 -23.4828 -23.4146 -23.4017 -23.3109 -23.2753 -23.2721
   -23.1517 -23.1197 -10.6735  -6.8757  -3.5836  -3.2668  -0.8806  -0.2542
     1.8055   2.6661

          k = 0.0000 0.3849 0.0000 ( 20145 PWs)   bands (ev):

   -23.5468 -23.5406 -23.4895 -23.4096 -23.4007 -23.3006 -23.2824 -23.2758
   -23.1536 -23.1141 -10.4745  -7.2725  -3.4738  -3.3883  -1.0511  -0.3584
     1.9370   2.8813

          k = 0.0000 0.4330 0.0000 ( 20161 PWs)   bands (ev):

   -23.5484 -23.5386 -23.4961 -23.4055 -23.4006 -23.2949 -23.2881 -23.2744
   -23.1563 -23.1095 -10.2641  -7.6458  -3.4861  -3.3450  -1.2221  -0.4658
     2.0853   3.0997

          k = 0.0000 0.4811 0.0000 ( 20157 PWs)   bands (ev):

   -23.5494 -23.5359 -23.5021 -23.4026 -23.4009 -23.2940 -23.2922 -23.2688
   -23.1592 -23.1062 -10.0589  -7.9714  -3.5577  -3.2188  -1.3774  -0.5557
     2.2500   3.2791

          k = 0.0000 0.5292 0.0000 ( 20142 PWs)   bands (ev):

   -23.5501 -23.5331 -23.5069 -23.4014 -23.4008 -23.2948 -23.2944 -23.2636
   -23.1616 -23.1042  -9.8936  -8.2105  -3.6013  -3.1221  -1.4917  -0.6140
     2.4001   3.3363

          k = 0.0000-0.5774 0.0000 ( 20152 PWs)   bands (ev):

   -23.5503 -23.5318 -23.5089 -23.4015 -23.4002 -23.2956 -23.2947 -23.2616
   -23.1625 -23.1036  -9.8261  -8.3027  -3.6159  -3.0850  -1.5348  -0.6340
     2.4674   3.3886

          k = 0.0417 0.0722 0.0000 ( 20017 PWs)   bands (ev):

   -23.5292 -23.5290 -23.4528 -23.4451 -23.4276 -23.3603 -23.2287 -23.2280
   -23.1622 -23.1592 -11.3275  -5.3482  -2.9771  -2.5000  -1.3089  -0.0636
     1.0118   1.2662

          k = 0.0417 0.1203 0.0000 ( 20039 PWs)   bands (ev):

   -23.5320 -23.5316 -23.4568 -23.4413 -23.4216 -23.3554 -23.2363 -23.2351
   -23.1591 -23.1523 -11.2689  -5.4637  -3.2848  -2.6210  -0.9274  -0.0694
     0.9579   1.4878

          k = 0.0417 0.1684 0.0000 ( 20081 PWs)   bands (ev):

   -23.5354 -23.5345 -23.4617 -23.4362 -23.4149 -23.3482 -23.2452 -23.2437
   -23.1561 -23.1442 -11.1815  -5.6635  -3.5132  -2.7749  -0.6318  -0.0904
     0.9961   1.7826

          k = 0.0417 0.2165 0.0000 ( 20075 PWs)   bands (ev):

   -23.5389 -23.5372 -23.4673 -23.4304 -23.4086 -23.3391 -23.2545 -23.2529
   -23.1539 -23.1360 -11.0659  -5.9507  -3.6348  -2.9419  -0.5186  -0.1160
     1.1857   2.0971

          k = 0.0417 0.2646 0.0000 ( 20107 PWs)   bands (ev):

   -23.5423 -23.5392 -23.4734 -23.4244 -23.4034 -23.3284 -23.2635 -23.2618
   -23.1528 -23.1280 -10.9232  -6.3040  -3.6607  -3.1063  -0.5824  -0.1379
     1.4635   2.2932

          k = 0.0417 0.3127 0.0000 ( 20105 PWs)   bands (ev):

   -23.5452 -23.5402 -23.4798 -23.4187 -23.3998 -23.3170 -23.2719 -23.2693
   -23.1532 -23.1208 -10.7553  -6.6927  -3.6188  -3.2553  -0.7322  -0.1842
     1.7003   2.4973

          k = 0.0417 0.3608 0.0000 ( 20127 PWs)   bands (ev):

   -23.5475 -23.5400 -23.4864 -23.4135 -23.3976 -23.3060 -23.2793 -23.2745
   -23.1549 -23.1145 -10.5654  -7.0900  -3.5490  -3.3653  -0.9132  -0.2604
     1.8658   2.7212

          k = 0.0417 0.4090 0.0000 ( 20135 PWs)   bands (ev):

   -23.5494 -23.5386 -23.4931 -23.4090 -23.3967 -23.2981 -23.2856 -23.2757
   -23.1576 -23.1092 -10.3592  -7.4748  -3.5599  -3.3428  -1.1030  -0.3512
     2.0151   2.9061

          k = 0.0417 0.4571 0.0000 ( 20146 PWs)   bands (ev):

   -23.5507 -23.5362 -23.4994 -23.4055 -23.3969 -23.2953 -23.2903 -23.2715
   -23.1608 -23.1052 -10.1482  -7.8260  -3.6297  -3.2256  -1.2854  -0.4365
     2.1742   3.0330

          k = 0.0417 0.5052 0.0000 ( 20148 PWs)   bands (ev):

   -23.5515 -23.5334 -23.5050 -23.4027 -23.3977 -23.2955 -23.2935 -23.2656
   -23.1639 -23.1024  -9.9565  -8.1138  -3.6845  -3.1099  -1.4379  -0.5007
     2.3298   3.1202

          k = 0.0417 0.5533 0.0000 ( 20150 PWs)   bands (ev):

   -23.5519 -23.5312 -23.5085 -23.4006 -23.3989 -23.2960 -23.2949 -23.2619
   -23.1658 -23.1010  -9.8315  -8.2875  -3.7130  -3.0373  -1.5285  -0.5347
     2.4356   3.2190

          k = 0.0833 0.1443 0.0000 ( 20061 PWs)   bands (ev):

   -23.5348 -23.5342 -23.4606 -23.4378 -23.4151 -23.3496 -23.2441 -23.2421
   -23.1573 -23.1447 -11.1960  -5.6275  -3.4779  -2.7791  -0.6042  -0.0910
     0.8998   1.7845

          k = 0.0833 0.1925 0.0000 ( 20087 PWs)   bands (ev):

   -23.5387 -23.5364 -23.4655 -23.4334 -23.4079 -23.3419 -23.2528 -23.2504
   -23.1560 -23.1363 -11.0946  -5.8742  -3.6002  -2.9660  -0.3485  -0.1324
     0.9352   2.1272

          k = 0.0833 0.2406 0.0000 ( 20121 PWs)   bands (ev):

   -23.5426 -23.5380 -23.4712 -23.4283 -23.4011 -23.3328 -23.2614 -23.2589
   -23.1557 -23.1278 -10.9655  -6.1920  -3.6417  -3.1556  -0.3473  -0.0966
     1.1309   2.2438

          k = 0.0833 0.2887 0.0000 ( 20106 PWs)   bands (ev):

   -23.5462 -23.5388 -23.4775 -23.4230 -23.3955 -23.3226 -23.2695 -23.2668
   -23.1566 -23.1197 -10.8102  -6.5560  -3.6219  -3.3250  -0.5099  -0.0587
     1.4325   2.3301

          k = 0.0833 0.3368 0.0000 ( 20114 PWs)   bands (ev):

   -23.5494 -23.5386 -23.4840 -23.4177 -23.3915 -23.3124 -23.2769 -23.2729
   -23.1589 -23.1124 -10.6310  -6.9406  -3.6084  -3.4160  -0.7150  -0.0738
     1.7212   2.4810

          k = 0.0833 0.3849 0.0000 ( 20126 PWs)   bands (ev):

   -23.5519 -23.5375 -23.4906 -23.4128 -23.3894 -23.3039 -23.2833 -23.2756
   -23.1622 -23.1062 -10.4319  -7.3243  -3.6942  -3.3466  -0.9360  -0.1196
     1.9402   2.6391

          k = 0.0833 0.4330 0.0000 ( 20149 PWs)   bands (ev):

   -23.5538 -23.5354 -23.4971 -23.4083 -23.3890 -23.2994 -23.2885 -23.2733
   -23.1663 -23.1011 -10.2209  -7.6879  -3.7940  -3.2149  -1.1561  -0.1758
     2.1164   2.7380

          k = 0.0833 0.4811 0.0000 ( 20151 PWs)   bands (ev):

   -23.5551 -23.5327 -23.5029 -23.4042 -23.3901 -23.2982 -23.2924 -23.2677
   -23.1704 -23.0974 -10.0140  -8.0080  -3.8709  -3.0757  -1.3553  -0.2264
     2.2629   2.8243

          k = 0.0833 0.5292 0.0000 ( 20157 PWs)   bands (ev):

   -23.5558 -23.5301 -23.5075 -23.4007 -23.3920 -23.2979 -23.2951 -23.2627
   -23.1736 -23.0951  -9.8458  -8.2457  -3.9183  -2.9641  -1.5030  -0.2608
     2.3563   2.9574

          k = 0.0833 0.5774 0.0000 ( 20154 PWs)   bands (ev):

   -23.5560 -23.5288 -23.5094 -23.3989 -23.3934 -23.2976 -23.2964 -23.2607
   -23.1749 -23.0944  -9.7765  -8.3384  -3.9343  -2.9197  -1.5594  -0.2728
     2.3856   3.0790

          k = 0.1250 0.2165 0.0000 ( 20099 PWs)   bands (ev):

   -23.5427 -23.5376 -23.4704 -23.4299 -23.3999 -23.3344 -23.2607 -23.2579
   -23.1569 -23.1275 -10.9797  -6.1530  -3.6270  -3.1881  -0.2309  -0.0482
     0.9366   2.2529

          k = 0.1250 0.2646 0.0000 ( 20119 PWs)   bands (ev):

   -23.5468 -23.5380 -23.4761 -23.4255 -23.3923 -23.3262 -23.2684 -23.2653
   -23.1591 -23.1187 -10.8378  -6.4821  -3.5998  -3.4041  -0.3746   0.1465
     1.0954   2.3049

          k = 0.1250 0.3127 0.0000 ( 20122 PWs)   bands (ev):

   -23.5507 -23.5377 -23.4824 -23.4207 -23.3859 -23.3178 -23.2754 -23.2715
   -23.1624 -23.1104 -10.6706  -6.8407  -3.6430  -3.4820  -0.5689   0.2184
     1.4048   2.3737

          k = 0.1250 0.3608 0.0000 ( 20112 PWs)   bands (ev):

   -23.5541 -23.5365 -23.4889 -23.4156 -23.3815 -23.3104 -23.2817 -23.2749
   -23.1669 -23.1030 -10.4811  -7.2094  -3.8098  -3.3706  -0.7939   0.2221
     1.7503   2.4405

          k = 0.1250 0.4090 0.0000 ( 20146 PWs)   bands (ev):

   -23.5568 -23.5346 -23.4953 -23.4105 -23.3795 -23.3056 -23.2871 -23.2741
   -23.1722 -23.0968 -10.2744  -7.5711  -3.9538  -3.2238  -1.0310   0.1985
     2.0398   2.4649

          k = 0.1250 0.4571 0.0000 ( 20145 PWs)   bands (ev):

   -23.5589 -23.5320 -23.5012 -23.4055 -23.3797 -23.3033 -23.2916 -23.2694
   -23.1778 -23.0919 -10.0613  -7.9067  -4.0641  -3.0647  -1.2607   0.1674
     2.2172   2.5250

          k = 0.1250 0.5052 0.0000 ( 20141 PWs)   bands (ev):

   -23.5602 -23.5292 -23.5063 -23.4010 -23.3816 -23.3019 -23.2952 -23.2638
   -23.1828 -23.0886  -9.8646  -8.1878  -4.1384  -2.9175  -1.4566   0.1406
     2.2542   2.7130

          k = 0.1250 0.5533 0.0000 ( 20145 PWs)   bands (ev):

   -23.5609 -23.5271 -23.5096 -23.3977 -23.3837 -23.3005 -23.2979 -23.2600
   -23.1859 -23.0869  -9.7335  -8.3619  -4.1757  -2.8220  -1.5772   0.1255
     2.2497   2.9300

          k = 0.1667 0.2887 0.0000 ( 20113 PWs)   bands (ev):

   -23.5512 -23.5374 -23.4818 -23.4217 -23.3836 -23.3200 -23.2749 -23.2710
   -23.1637 -23.1097 -10.6839  -6.8053  -3.6538  -3.5107  -0.5220   0.4362
     1.1628   2.3774

          k = 0.1667 0.3368 0.0000 ( 20110 PWs)   bands (ev):

   -23.5554 -23.5361 -23.4880 -23.4171 -23.3761 -23.3151 -23.2809 -23.2745
   -23.1696 -23.1012 -10.5058  -7.1464  -3.8771  -3.3883  -0.7197   0.5938
     1.4170   2.4433

          k = 0.1667 0.3849 0.0000 ( 20115 PWs)   bands (ev):

   -23.5590 -23.5341 -23.4941 -23.4119 -23.3708 -23.3120 -23.2863 -23.2743
   -23.1764 -23.0938 -10.3072  -7.4915  -4.0669  -3.2370  -0.9456   0.6347
     1.7909   2.3695

          k = 0.1667 0.4330 0.0000 ( 20139 PWs)   bands (ev):

   -23.5619 -23.5316 -23.5000 -23.4065 -23.3686 -23.3101 -23.2910 -23.2705
   -23.1837 -23.0877 -10.0947  -7.8258  -4.2172  -3.0679  -1.1806   0.6342
     2.1582   2.2596

          k = 0.1667 0.4811 0.0000 ( 20145 PWs)   bands (ev):

   -23.5640 -23.5287 -23.5052 -23.4012 -23.3692 -23.3082 -23.2952 -23.2649
   -23.1908 -23.0832  -9.8825  -8.1289  -4.3255  -2.8969  -1.4029   0.6231
     2.1492   2.5044

          k = 0.1667 0.5292 0.0000 ( 20147 PWs)   bands (ev):

   -23.5653 -23.5261 -23.5093 -23.3970 -23.3712 -23.3057 -23.2990 -23.2598
   -23.1964 -23.0804  -9.7042  -8.3634  -4.3907  -2.7547  -1.5774   0.6131
     2.0877   2.7974

          k = 0.1667 0.5774 0.0000 ( 20135 PWs)   bands (ev):

   -23.5658 -23.5248 -23.5111 -23.3952 -23.3723 -23.3031 -23.3019 -23.2578
   -23.1985 -23.0794  -9.6278  -8.4588  -4.4125  -2.6950  -1.6482   0.6092
     2.0665   2.9638

          k = 0.2083 0.3608 0.0000 ( 20119 PWs)   bands (ev):

   -23.5597 -23.5339 -23.4937 -23.4124 -23.3671 -23.3149 -23.2860 -23.2743
   -23.1779 -23.0927 -10.3182  -7.4631  -4.1077  -3.2426  -0.9157   0.9269
     1.5381   2.4122

          k = 0.2083 0.4090 0.0000 ( 20133 PWs)   bands (ev):

   -23.5635 -23.5314 -23.4993 -23.4070 -23.3602 -23.3161 -23.2907 -23.2709
   -23.1870 -23.0854 -10.1119  -7.7803  -4.3015  -3.0727  -1.1352   1.0836
     1.8548   2.2403

          k = 0.2083 0.4571 0.0000 ( 20137 PWs)   bands (ev):

   -23.5666 -23.5285 -23.5045 -23.4015 -23.3571 -23.3159 -23.2952 -23.2656
   -23.1961 -23.0796  -9.8952  -8.0849  -4.4502  -2.8903  -1.3604   1.1296
     2.0663   2.2795

          k = 0.2083 0.5052 0.0000 ( 20163 PWs)   bands (ev):

   -23.5687 -23.5257 -23.5089 -23.3965 -23.3576 -23.3132 -23.2997 -23.2599
   -23.2043 -23.0756  -9.6873  -8.3535  -4.5505  -2.7152  -1.5667   1.1451
     1.9592   2.6500

          k = 0.2083 0.5533 0.0000 ( 20157 PWs)   bands (ev):

   -23.5698 -23.5235 -23.5118 -23.3932 -23.3591 -23.3090 -23.3043 -23.2558
   -23.2097 -23.0736  -9.5390  -8.5329  -4.6008  -2.5921  -1.7063   1.1510
     1.8998   2.9386

          k = 0.2500 0.4330 0.0000 ( 20149 PWs)   bands (ev):

   -23.5675 -23.5285 -23.5042 -23.4015 -23.3511 -23.3204 -23.2952 -23.2659
   -23.1980 -23.0784  -9.8997  -8.0686  -4.4940  -2.8890  -1.3444   1.4489
     2.0229   2.0843

          k = 0.2500 0.4811 0.0000 ( 20153 PWs)   bands (ev):

   -23.5705 -23.5255 -23.5086 -23.3962 -23.3458 -23.3216 -23.3001 -23.2600
   -23.2086 -23.0731  -9.6800  -8.3446  -4.6355  -2.6976  -1.5569   1.6086
     1.9386   2.3923

          k = 0.2500 0.5292 0.0000 ( 20133 PWs)   bands (ev):

   -23.5723 -23.5229 -23.5121 -23.3921 -23.3454 -23.3176 -23.3055 -23.2543
   -23.2175 -23.0699  -9.4788  -8.5802  -4.7217  -2.5236  -1.7447   1.6747
     1.8252   2.7955

          k = 0.2500 0.5774 0.0000 ( 20123 PWs)   bands (ev):

   -23.5730 -23.5215 -23.5138 -23.3904 -23.3461 -23.3117 -23.3113 -23.2515
   -23.2213 -23.0688  -9.3805  -8.6903  -4.7506  -2.4398  -1.8334   1.7211
     1.7571   3.0099

          k = 0.2917 0.5052 0.0000 ( 20137 PWs)   bands (ev):

   -23.5732 -23.5227 -23.5122 -23.3917 -23.3362 -23.3250 -23.3059 -23.2537
   -23.2203 -23.0686  -9.4573  -8.5967  -4.7633  -2.4993  -1.7583   1.7248
     2.1248   2.5580

          k = 0.2917 0.5533 0.0000 ( 20132 PWs)   bands (ev):

   -23.5747 -23.5202 -23.5150 -23.3889 -23.3334 -23.3208 -23.3129 -23.2476
   -23.2293 -23.0663  -9.2605  -8.8082  -4.8284  -2.3264  -1.9329   1.6814
     2.2611   2.8540

          k = 0.3333 0.5774 0.0000 ( 20133 PWs)   bands (ev):

   -23.5755 -23.5177 -23.5176 -23.3878 -23.3238 -23.3214 -23.3213 -23.2394
   -23.2394 -23.0651  -9.0359  -9.0358  -4.8646  -2.1281  -2.1281   1.6483
     2.6902   2.6902

     the Fermi energy is    -2.3075 ev

!    total energy              =    -326.41644679 Ry
     estimated scf accuracy    <       0.00000025 Ry
     smearing contrib. (-TS)   =       0.00626743 Ry
     internal energy E=F+TS    =    -326.42271421 Ry

     The total energy is F=E-TS. E is the sum of the following terms:
     one-electron contribution =    -856.46051817 Ry
     hartree contribution      =     435.92288904 Ry
     xc contribution           =     -95.00655040 Ry
     ewald contribution        =     189.12146532 Ry

     convergence has been achieved in   7 iterations

     Writing output data file ../tmp/stanene.save/

     init_run     :      5.69s CPU      5.92s WALL (       1 calls)
     electrons    :    126.16s CPU    131.20s WALL (       1 calls)

     Called by init_run:
     wfcinit      :      4.39s CPU      4.53s WALL (       1 calls)
     potinit      :      0.49s CPU      0.51s WALL (       1 calls)
     hinit0       :      0.41s CPU      0.41s WALL (       1 calls)

     Called by electrons:
     c_bands      :    108.18s CPU    111.55s WALL (       7 calls)
     sum_band     :     13.98s CPU     14.92s WALL (       7 calls)
     v_of_rho     :      1.34s CPU      1.40s WALL (       8 calls)
     newd         :      2.69s CPU      3.42s WALL (       8 calls)
     mix_rho      :      0.19s CPU      0.20s WALL (       7 calls)

     Called by c_bands:
     init_us_2    :      0.83s CPU      0.84s WALL (     915 calls)
     cegterg      :    104.63s CPU    107.97s WALL (     427 calls)

     Called by *egterg:
     cdiaghg      :      1.65s CPU      1.67s WALL (    2370 calls)
     h_psi        :     65.35s CPU     68.65s WALL (    2431 calls)
     s_psi        :      4.66s CPU      4.68s WALL (    2431 calls)
     g_psi        :      0.44s CPU      0.44s WALL (    1943 calls)

     Called by h_psi:
     h_psi:calbec :      8.13s CPU      8.41s WALL (    2431 calls)
     vloc_psi     :     52.18s CPU     55.14s WALL (    2431 calls)
     add_vuspsi   :      4.78s CPU      4.85s WALL (    2431 calls)

     General routines
     calbec       :     10.51s CPU     10.86s WALL (    2858 calls)
     fft          :      1.36s CPU      1.40s WALL (     102 calls)
     ffts         :      0.04s CPU      0.05s WALL (      15 calls)
     fftw         :     55.02s CPU     57.89s WALL (   54936 calls)
     interpolate  :      0.14s CPU      0.15s WALL (       8 calls)

     Parallel routines
     fft_scatt_xy :      4.88s CPU      5.26s WALL (   55053 calls)
     fft_scatt_yz :     30.64s CPU     31.86s WALL (   55053 calls)

     PWSCF        :   2m12.06s CPU   2m17.59s WALL


   This run was terminated on:  23:35:32  23Jan2024            

=------------------------------------------------------------------------------=
   JOB DONE.
=------------------------------------------------------------------------------=
