
     Program PWSCF v.6.7MaX starts on 23Jan2024 at 23:26:37 

     This program is part of the open-source Quantum ESPRESSO suite
     for quantum simulation of materials; please cite
         "P. Giannozzi et al., J. Phys.:Condens. Matter 21 395502 (2009);
         "P. Giannozzi et al., J. Phys.:Condens. Matter 29 465901 (2017);
          URL http://www.quantum-espresso.org", 
     in publications or presentations arising from this work. More details at
     http://www.quantum-espresso.org/quote

     Parallel version (MPI), running on     6 processors

     MPI processes distributed on     1 nodes
     R & G space division:  proc/nbgrp/npool/nimage =       6
     Waiting for input...
     Reading input from standard input

     Current dimensions of program PWSCF are:
     Max number of different atomic species (ntypx) = 10
     Max number of k-points (npk) =  40000
     Max angular momentum in pseudopotentials (lmaxx) =  3

     Subspace diagonalization in iterative solution of the eigenvalue problem:
     one sub-group per band group will be used
     scalapack distributed-memory algorithm (size of sub-group:  2*  2 procs)


     Parallelization info
     --------------------
     sticks:   dense  smooth     PW     G-vecs:    dense   smooth      PW
     Min         431     214     61                75909    26818    4015
     Max         432     215     62                75924    26841    4025
     Sum        2587    1285    367               455489   160939   24117



     bravais-lattice index     =            4
     lattice parameter (alat)  =       8.8506  a.u.
     unit-cell volume          =    2563.9136 (a.u.)^3
     number of atoms/cell      =            2
     number of atomic types    =            1
     number of electrons       =        28.00
     number of Kohn-Sham states=           18
     kinetic-energy cutoff     =      60.0000  Ry
     charge density cutoff     =     480.0000  Ry
     scf convergence threshold =      1.0E-06
     mixing beta               =       0.7000
     number of iterations used =            8  plain     mixing
     Exchange-correlation= SLA  PW   PBE  PBE
                           (   1   4   3   4   0   0   0)

     celldm(1)=   8.850584  celldm(2)=   0.000000  celldm(3)=   4.270286
     celldm(4)=   0.000000  celldm(5)=   0.000000  celldm(6)=   0.000000

     crystal axes: (cart. coord. in units of alat)
               a(1) = (   1.000000   0.000000   0.000000 )  
               a(2) = (  -0.500000   0.866025   0.000000 )  
               a(3) = (   0.000000   0.000000   4.270286 )  

     reciprocal axes: (cart. coord. in units 2 pi/alat)
               b(1) = (  1.000000  0.577350 -0.000000 )  
               b(2) = (  0.000000  1.154701  0.000000 )  
               b(3) = (  0.000000 -0.000000  0.234176 )  


     PseudoPot. # 1 for Sn read from file:
     ../pseudo/Sn_pbe_v1.uspp.F.UPF
     MD5 check sum: 4cf58ce39ec5d5d420df3dd08604eb00
     Pseudo is Ultrasoft + core correction, Zval = 14.0
     Generated by new atomic code, or converted to UPF format
     Using radial grid of  891 points,  6 beta functions with: 
                l(1) =   0
                l(2) =   0
                l(3) =   1
                l(4) =   1
                l(5) =   2
                l(6) =   2
     Q(r) pseudized with  6 coefficients,  rinner =    1.200   1.200   1.200
                                                       1.200   1.200

     atomic species   valence    mass     pseudopotential
        Sn            14.00   118.71000     Sn( 1.00)

      6 Sym. Ops. (no inversion) found



   Cartesian axes

     site n.     atom                  positions (alat units)
         1           Sn  tau(   1) = (   0.0000000   0.5773503   2.1351428  )
         2           Sn  tau(   2) = (   0.5000000   0.2886751   1.9552503  )

     number of k points=    61  Marzari-Vanderbilt smearing, width (Ry)=  0.0200
                       cart. coord. in units 2pi/alat
        k(    1) = (   0.0000000   0.0000000   0.0000000), wk =   0.0034722
        k(    2) = (   0.0000000   0.0481125   0.0000000), wk =   0.0208333
        k(    3) = (   0.0000000   0.0962250   0.0000000), wk =   0.0208333
        k(    4) = (   0.0000000   0.1443376   0.0000000), wk =   0.0208333
        k(    5) = (   0.0000000   0.1924501   0.0000000), wk =   0.0208333
        k(    6) = (   0.0000000   0.2405626   0.0000000), wk =   0.0208333
        k(    7) = (   0.0000000   0.2886751   0.0000000), wk =   0.0208333
        k(    8) = (   0.0000000   0.3367877   0.0000000), wk =   0.0208333
        k(    9) = (   0.0000000   0.3849002   0.0000000), wk =   0.0208333
        k(   10) = (   0.0000000   0.4330127   0.0000000), wk =   0.0208333
        k(   11) = (   0.0000000   0.4811252   0.0000000), wk =   0.0208333
        k(   12) = (   0.0000000   0.5292377   0.0000000), wk =   0.0208333
        k(   13) = (   0.0000000  -0.5773503   0.0000000), wk =   0.0104167
        k(   14) = (   0.0416667   0.0721688   0.0000000), wk =   0.0208333
        k(   15) = (   0.0416667   0.1202813   0.0000000), wk =   0.0416667
        k(   16) = (   0.0416667   0.1683938   0.0000000), wk =   0.0416667
        k(   17) = (   0.0416667   0.2165064   0.0000000), wk =   0.0416667
        k(   18) = (   0.0416667   0.2646189   0.0000000), wk =   0.0416667
        k(   19) = (   0.0416667   0.3127314   0.0000000), wk =   0.0416667
        k(   20) = (   0.0416667   0.3608439   0.0000000), wk =   0.0416667
        k(   21) = (   0.0416667   0.4089564   0.0000000), wk =   0.0416667
        k(   22) = (   0.0416667   0.4570690   0.0000000), wk =   0.0416667
        k(   23) = (   0.0416667   0.5051815   0.0000000), wk =   0.0416667
        k(   24) = (   0.0416667   0.5532940   0.0000000), wk =   0.0416667
        k(   25) = (   0.0833333   0.1443376   0.0000000), wk =   0.0208333
        k(   26) = (   0.0833333   0.1924501   0.0000000), wk =   0.0416667
        k(   27) = (   0.0833333   0.2405626   0.0000000), wk =   0.0416667
        k(   28) = (   0.0833333   0.2886751   0.0000000), wk =   0.0416667
        k(   29) = (   0.0833333   0.3367877   0.0000000), wk =   0.0416667
        k(   30) = (   0.0833333   0.3849002   0.0000000), wk =   0.0416667
        k(   31) = (   0.0833333   0.4330127   0.0000000), wk =   0.0416667
        k(   32) = (   0.0833333   0.4811252   0.0000000), wk =   0.0416667
        k(   33) = (   0.0833333   0.5292377   0.0000000), wk =   0.0416667
        k(   34) = (   0.0833333   0.5773503   0.0000000), wk =   0.0208333
        k(   35) = (   0.1250000   0.2165064   0.0000000), wk =   0.0208333
        k(   36) = (   0.1250000   0.2646189   0.0000000), wk =   0.0416667
        k(   37) = (   0.1250000   0.3127314   0.0000000), wk =   0.0416667
        k(   38) = (   0.1250000   0.3608439   0.0000000), wk =   0.0416667
        k(   39) = (   0.1250000   0.4089564   0.0000000), wk =   0.0416667
        k(   40) = (   0.1250000   0.4570690   0.0000000), wk =   0.0416667
        k(   41) = (   0.1250000   0.5051815   0.0000000), wk =   0.0416667
        k(   42) = (   0.1250000   0.5532940   0.0000000), wk =   0.0416667
        k(   43) = (   0.1666667   0.2886751   0.0000000), wk =   0.0208333
        k(   44) = (   0.1666667   0.3367877   0.0000000), wk =   0.0416667
        k(   45) = (   0.1666667   0.3849002   0.0000000), wk =   0.0416667
        k(   46) = (   0.1666667   0.4330127   0.0000000), wk =   0.0416667
        k(   47) = (   0.1666667   0.4811252   0.0000000), wk =   0.0416667
        k(   48) = (   0.1666667   0.5292377   0.0000000), wk =   0.0416667
        k(   49) = (   0.1666667   0.5773503   0.0000000), wk =   0.0208333
        k(   50) = (   0.2083333   0.3608439   0.0000000), wk =   0.0208333
        k(   51) = (   0.2083333   0.4089564   0.0000000), wk =   0.0416667
        k(   52) = (   0.2083333   0.4570690   0.0000000), wk =   0.0416667
        k(   53) = (   0.2083333   0.5051815   0.0000000), wk =   0.0416667
        k(   54) = (   0.2083333   0.5532940   0.0000000), wk =   0.0416667
        k(   55) = (   0.2500000   0.4330127   0.0000000), wk =   0.0208333
        k(   56) = (   0.2500000   0.4811252   0.0000000), wk =   0.0416667
        k(   57) = (   0.2500000   0.5292377   0.0000000), wk =   0.0416667
        k(   58) = (   0.2500000   0.5773503   0.0000000), wk =   0.0208333
        k(   59) = (   0.2916667   0.5051815   0.0000000), wk =   0.0208333
        k(   60) = (   0.2916667   0.5532940   0.0000000), wk =   0.0416667
        k(   61) = (   0.3333333   0.5773503   0.0000000), wk =   0.0069444

     Dense  grid:   455489 G-vectors     FFT dimensions: (  64,  64, 270)

     Smooth grid:   160939 G-vectors     FFT dimensions: (  45,  45, 192)

     Estimated max dynamical RAM per process >     322.30 MB

     Estimated total dynamical RAM >       1.89 GB

     Initial potential from superposition of free atoms

     starting charge   25.99991, renormalised to   28.00000

     negative rho (up, down):  5.949E-04 0.000E+00
     Starting wfcs are   18 randomized atomic wfcs

     total cpu time spent up to now is        7.2 secs

     Self-consistent Calculation

     iteration #  1     ecut=    60.00 Ry     beta= 0.70
     Davidson diagonalization with overlap
     ethr =  1.00E-02,  avg # of iterations =  8.8

     negative rho (up, down):  1.893E-05 0.000E+00

     total cpu time spent up to now is       26.8 secs

     total energy              =    -325.45750237 Ry
     estimated scf accuracy    <       2.46896252 Ry

     iteration #  2     ecut=    60.00 Ry     beta= 0.70
     Davidson diagonalization with overlap
     ethr =  8.82E-03,  avg # of iterations =  2.1

     negative rho (up, down):  3.413E-05 0.000E+00

     total cpu time spent up to now is       43.7 secs

     total energy              =    -326.35828915 Ry
     estimated scf accuracy    <       0.38266484 Ry

     iteration #  3     ecut=    60.00 Ry     beta= 0.70
     Davidson diagonalization with overlap
     ethr =  1.37E-03,  avg # of iterations =  2.1

     negative rho (up, down):  6.043E-05 0.000E+00

     total cpu time spent up to now is       60.2 secs

     total energy              =    -326.41610755 Ry
     estimated scf accuracy    <       0.00636741 Ry

     iteration #  4     ecut=    60.00 Ry     beta= 0.70
     Davidson diagonalization with overlap
     c_bands:  1 eigenvalues not converged
     ethr =  2.27E-05,  avg # of iterations =  8.4

     negative rho (up, down):  8.078E-05 0.000E+00

     total cpu time spent up to now is       81.1 secs

     total energy              =    -326.41819136 Ry
     estimated scf accuracy    <       0.00039420 Ry

     iteration #  5     ecut=    60.00 Ry     beta= 0.70
     Davidson diagonalization with overlap
     ethr =  1.41E-06,  avg # of iterations =  5.7

     negative rho (up, down):  8.261E-05 0.000E+00

     total cpu time spent up to now is      100.3 secs

     total energy              =    -326.41824795 Ry
     estimated scf accuracy    <       0.00002944 Ry

     iteration #  6     ecut=    60.00 Ry     beta= 0.70
     Davidson diagonalization with overlap
     ethr =  1.05E-07,  avg # of iterations =  2.2

     negative rho (up, down):  8.495E-05 0.000E+00

     total cpu time spent up to now is      114.8 secs

     total energy              =    -326.41825574 Ry
     estimated scf accuracy    <       0.00001280 Ry

     iteration #  7     ecut=    60.00 Ry     beta= 0.70
     Davidson diagonalization with overlap
     ethr =  4.57E-08,  avg # of iterations =  2.0

     negative rho (up, down):  8.557E-05 0.000E+00

     total cpu time spent up to now is      127.5 secs

     End of self-consistent calculation

          k = 0.0000 0.0000 0.0000 ( 20025 PWs)   bands (ev):

   -23.5196 -23.5196 -23.4416 -23.4416 -23.4273 -23.3574 -23.2147 -23.2147
   -23.1585 -23.1585 -11.3665  -5.2706  -2.3966  -2.3966  -1.9376  -0.0630
     1.0981   1.0981

          k = 0.0000 0.0481 0.0000 ( 20035 PWs)   bands (ev):

   -23.5205 -23.5204 -23.4434 -23.4404 -23.4249 -23.3562 -23.2172 -23.2170
   -23.1572 -23.1562 -11.3518  -5.2937  -2.6862  -2.4291  -1.6299  -0.0618
     1.0681   1.1539

          k = 0.0000 0.0962 0.0000 ( 20005 PWs)   bands (ev):

   -23.5230 -23.5225 -23.4473 -23.4370 -23.4194 -23.3524 -23.2236 -23.2231
   -23.1540 -23.1504 -11.3077  -5.3711  -3.0732  -2.5197  -1.1939  -0.0617
     1.0125   1.3133

          k = 0.0000 0.1443 0.0000 ( 20065 PWs)   bands (ev):

   -23.5263 -23.5254 -23.4521 -23.4321 -23.4128 -23.3462 -23.2322 -23.2316
   -23.1502 -23.1428 -11.2346  -5.5235  -3.3835  -2.6514  -0.8300  -0.0714
     1.0164   1.5562

          k = 0.0000 0.1925 0.0000 ( 20113 PWs)   bands (ev):

   -23.5296 -23.5287 -23.4575 -23.4261 -23.4065 -23.3378 -23.2417 -23.2409
   -23.1469 -23.1346 -11.1329  -5.7671  -3.5791  -2.8055  -0.6295  -0.0942
     1.1607   2.1785

          k = 0.0000 0.2406 0.0000 ( 20071 PWs)   bands (ev):

   -23.5323 -23.5320 -23.4634 -23.4198 -23.4011 -23.3275 -23.2512 -23.2502
   -23.1448 -23.1266 -11.0035  -6.0927  -3.6600  -2.9659  -0.6171  -0.1229
     1.4191   2.2899

          k = 0.0000 0.2887 0.0000 ( 20087 PWs)   bands (ev):

   -23.5350 -23.5340 -23.4697 -23.4136 -23.3972 -23.3160 -23.2602 -23.2586
   -23.1440 -23.1191 -10.8479  -6.4710  -3.6509  -3.1209  -0.7226  -0.1706
     1.6542   2.4645

          k = 0.0000 0.3368 0.0000 ( 20109 PWs)   bands (ev):

   -23.5376 -23.5345 -23.4762 -23.4078 -23.3948 -23.3042 -23.2685 -23.2653
   -23.1446 -23.1125 -10.6684  -6.8707  -3.5799  -3.2620  -0.8767  -0.2506
     1.8075   2.6666

          k = 0.0000 0.3849 0.0000 ( 20145 PWs)   bands (ev):

   -23.5397 -23.5337 -23.4828 -23.4028 -23.3938 -23.2938 -23.2755 -23.2691
   -23.1464 -23.1068 -10.4694  -7.2675  -3.4701  -3.3835  -1.0473  -0.3546
     1.9388   2.8818

          k = 0.0000 0.4330 0.0000 ( 20161 PWs)   bands (ev):

   -23.5412 -23.5317 -23.4894 -23.3988 -23.3936 -23.2881 -23.2812 -23.2678
   -23.1491 -23.1023 -10.2589  -7.6407  -3.4814  -3.3413  -1.2184  -0.4619
     2.0870   3.1004

          k = 0.0000 0.4811 0.0000 ( 20157 PWs)   bands (ev):

   -23.5423 -23.5290 -23.4955 -23.3958 -23.3940 -23.2872 -23.2854 -23.2621
   -23.1521 -23.0990 -10.0537  -7.9664  -3.5530  -3.2151  -1.3737  -0.5516
     2.2518   3.2802

          k = 0.0000 0.5292 0.0000 ( 20142 PWs)   bands (ev):

   -23.5429 -23.5262 -23.5002 -23.3944 -23.3941 -23.2879 -23.2877 -23.2569
   -23.1544 -23.0970  -9.8884  -8.2054  -3.5965  -3.1184  -1.4881  -0.6099
     2.4020   3.3379

          k = 0.0000-0.5774 0.0000 ( 20152 PWs)   bands (ev):

   -23.5431 -23.5249 -23.5022 -23.3946 -23.3935 -23.2888 -23.2879 -23.2549
   -23.1553 -23.0963  -9.8210  -8.2977  -3.6112  -3.0813  -1.5313  -0.6299
     2.4694   3.3919

          k = 0.0417 0.0722 0.0000 ( 20017 PWs)   bands (ev):

   -23.5222 -23.5219 -23.4460 -23.4383 -23.4209 -23.3537 -23.2217 -23.2211
   -23.1551 -23.1520 -11.3224  -5.3439  -2.9724  -2.4950  -1.3040  -0.0612
     1.0156   1.2701

          k = 0.0417 0.1203 0.0000 ( 20039 PWs)   bands (ev):

   -23.5249 -23.5245 -23.4501 -23.4344 -23.4148 -23.3487 -23.2293 -23.2281
   -23.1520 -23.1451 -11.2638  -5.4592  -3.2803  -2.6160  -0.9226  -0.0669
     0.9618   1.4917

          k = 0.0417 0.1684 0.0000 ( 20081 PWs)   bands (ev):

   -23.5283 -23.5275 -23.4550 -23.4294 -23.4081 -23.3416 -23.2383 -23.2368
   -23.1490 -23.1371 -11.1764  -5.6588  -3.5090  -2.7700  -0.6271  -0.0878
     0.9999   1.7865

          k = 0.0417 0.2165 0.0000 ( 20075 PWs)   bands (ev):

   -23.5319 -23.5302 -23.4607 -23.4236 -23.4018 -23.3324 -23.2476 -23.2460
   -23.1467 -23.1288 -11.0608  -5.9458  -3.6308  -2.9370  -0.5142  -0.1130
     1.1895   2.1008

          k = 0.0417 0.2646 0.0000 ( 20107 PWs)   bands (ev):

   -23.5352 -23.5322 -23.4667 -23.4176 -23.3966 -23.3217 -23.2566 -23.2549
   -23.1457 -23.1208 -10.9181  -6.2990  -3.6569  -3.1015  -0.5783  -0.1345
     1.4669   2.2943

          k = 0.0417 0.3127 0.0000 ( 20105 PWs)   bands (ev):

   -23.5381 -23.5332 -23.4732 -23.4119 -23.3929 -23.3102 -23.2650 -23.2625
   -23.1461 -23.1136 -10.7503  -6.6876  -3.6150  -3.2506  -0.7283  -0.1806
     1.7029   2.4995

          k = 0.0417 0.3608 0.0000 ( 20127 PWs)   bands (ev):

   -23.5404 -23.5330 -23.4798 -23.4067 -23.3907 -23.2992 -23.2725 -23.2678
   -23.1477 -23.1072 -10.5603  -7.0850  -3.5451  -3.3607  -0.9094  -0.2566
     1.8677   2.7229

          k = 0.0417 0.4090 0.0000 ( 20135 PWs)   bands (ev):

   -23.5422 -23.5317 -23.4864 -23.4022 -23.3898 -23.2912 -23.2787 -23.2690
   -23.1504 -23.1020 -10.3541  -7.4697  -3.5554  -3.3389  -1.0993  -0.3473
     2.0169   2.9081

          k = 0.0417 0.4571 0.0000 ( 20146 PWs)   bands (ev):

   -23.5435 -23.5293 -23.4928 -23.3986 -23.3899 -23.2885 -23.2835 -23.2648
   -23.1537 -23.0979 -10.1431  -7.8209  -3.6251  -3.2218  -1.2817  -0.4325
     2.1760   3.0354

          k = 0.0417 0.5052 0.0000 ( 20148 PWs)   bands (ev):

   -23.5443 -23.5265 -23.4983 -23.3958 -23.3907 -23.2887 -23.2866 -23.2589
   -23.1567 -23.0952  -9.9513  -8.1087  -3.6798  -3.1062  -1.4343  -0.4966
     2.3317   3.1228

          k = 0.0417 0.5533 0.0000 ( 20150 PWs)   bands (ev):

   -23.5447 -23.5243 -23.5018 -23.3937 -23.3919 -23.2892 -23.2882 -23.2552
   -23.1586 -23.0938  -9.8264  -8.2825  -3.7083  -3.0336  -1.5249  -0.5306
     2.4377   3.2216

          k = 0.0833 0.1443 0.0000 ( 20061 PWs)   bands (ev):

   -23.5277 -23.5272 -23.4540 -23.4310 -23.4083 -23.3429 -23.2372 -23.2352
   -23.1501 -23.1376 -11.1909  -5.6228  -3.4737  -2.7742  -0.5994  -0.0883
     0.9036   1.7885

          k = 0.0833 0.1925 0.0000 ( 20087 PWs)   bands (ev):

   -23.5316 -23.5293 -23.4589 -23.4266 -23.4010 -23.3352 -23.2459 -23.2435
   -23.1489 -23.1291 -11.0895  -5.8693  -3.5962  -2.9612  -0.3439  -0.1294
     0.9390   2.2342

          k = 0.0833 0.2406 0.0000 ( 20121 PWs)   bands (ev):

   -23.5355 -23.5310 -23.4646 -23.4215 -23.3942 -23.3260 -23.2545 -23.2520
   -23.1486 -23.1206 -10.9604  -6.1871  -3.6378  -3.1508  -0.3435  -0.0928
     1.1345   2.2455

          k = 0.0833 0.2887 0.0000 ( 20106 PWs)   bands (ev):

   -23.5391 -23.5318 -23.4708 -23.4162 -23.3886 -23.3159 -23.2627 -23.2600
   -23.1495 -23.1125 -10.8051  -6.5510  -3.6181  -3.3203  -0.5062  -0.0547
     1.4358   2.3322

          k = 0.0833 0.3368 0.0000 ( 20114 PWs)   bands (ev):

   -23.5422 -23.5316 -23.4774 -23.4109 -23.3846 -23.3056 -23.2701 -23.2661
   -23.1517 -23.1052 -10.6259  -6.9355  -3.6042  -3.4117  -0.7113  -0.0698
     1.7237   2.4837

          k = 0.0833 0.3849 0.0000 ( 20126 PWs)   bands (ev):

   -23.5447 -23.5305 -23.4840 -23.4060 -23.3825 -23.2970 -23.2765 -23.2689
   -23.1551 -23.0989 -10.4268  -7.3192  -3.6896  -3.3427  -0.9323  -0.1156
     1.9422   2.6420

          k = 0.0833 0.4330 0.0000 ( 20149 PWs)   bands (ev):

   -23.5466 -23.5285 -23.4904 -23.4015 -23.3821 -23.2925 -23.2817 -23.2666
   -23.1592 -23.0939 -10.2158  -7.6828  -3.7894  -3.2111  -1.1525  -0.1717
     2.1182   2.7409

          k = 0.0833 0.4811 0.0000 ( 20151 PWs)   bands (ev):

   -23.5479 -23.5258 -23.4963 -23.3974 -23.3832 -23.2914 -23.2856 -23.2610
   -23.1633 -23.0902 -10.0089  -8.0029  -3.8663  -3.0720  -1.3517  -0.2223
     2.2649   2.8270

          k = 0.0833 0.5292 0.0000 ( 20157 PWs)   bands (ev):

   -23.5486 -23.5232 -23.5009 -23.3939 -23.3851 -23.2911 -23.2883 -23.2560
   -23.1665 -23.0879  -9.8407  -8.2406  -3.9137  -2.9603  -1.4994  -0.2566
     2.3586   2.9598

          k = 0.0833 0.5774 0.0000 ( 20154 PWs)   bands (ev):

   -23.5489 -23.5220 -23.5027 -23.3921 -23.3864 -23.2907 -23.2896 -23.2540
   -23.1677 -23.0871  -9.7714  -8.3334  -3.9297  -2.9159  -1.5559  -0.2687
     2.3880   3.0815

          k = 0.1250 0.2165 0.0000 ( 20099 PWs)   bands (ev):

   -23.5356 -23.5306 -23.4638 -23.4231 -23.3931 -23.3277 -23.2538 -23.2510
   -23.1498 -23.1203 -10.9746  -6.1480  -3.6231  -3.1833  -0.2278  -0.0436
     0.9402   2.2541

          k = 0.1250 0.2646 0.0000 ( 20119 PWs)   bands (ev):

   -23.5397 -23.5311 -23.4695 -23.4187 -23.3855 -23.3194 -23.2615 -23.2585
   -23.1520 -23.1115 -10.8327  -6.4771  -3.5960  -3.3994  -0.3713   0.1509
     1.0989   2.3065

          k = 0.1250 0.3127 0.0000 ( 20122 PWs)   bands (ev):

   -23.5436 -23.5308 -23.4758 -23.4139 -23.3791 -23.3110 -23.2686 -23.2647
   -23.1553 -23.1032 -10.6655  -6.8356  -3.6385  -3.4780  -0.5655   0.2227
     1.4081   2.3758

          k = 0.1250 0.3608 0.0000 ( 20112 PWs)   bands (ev):

   -23.5470 -23.5296 -23.4822 -23.4088 -23.3746 -23.3035 -23.2749 -23.2682
   -23.1598 -23.0958 -10.4760  -7.2043  -3.8053  -3.3669  -0.7904   0.2263
     1.7530   2.4433

          k = 0.1250 0.4090 0.0000 ( 20146 PWs)   bands (ev):

   -23.5497 -23.5277 -23.4886 -23.4037 -23.3726 -23.2986 -23.2803 -23.2674
   -23.1651 -23.0896 -10.2693  -7.5660  -3.9493  -3.2201  -1.0274   0.2027
     2.0419   2.4680

          k = 0.1250 0.4571 0.0000 ( 20145 PWs)   bands (ev):

   -23.5517 -23.5251 -23.4945 -23.3987 -23.3728 -23.2963 -23.2848 -23.2627
   -23.1707 -23.0847 -10.0561  -7.9016  -4.0596  -3.0609  -1.2571   0.1716
     2.2192   2.5279

          k = 0.1250 0.5052 0.0000 ( 20141 PWs)   bands (ev):

   -23.5530 -23.5224 -23.4996 -23.3942 -23.3746 -23.2951 -23.2884 -23.2571
   -23.1757 -23.0814  -9.8595  -8.1827  -4.1338  -2.9138  -1.4531   0.1449
     2.2569   2.7151

          k = 0.1250 0.5533 0.0000 ( 20145 PWs)   bands (ev):

   -23.5537 -23.5202 -23.5029 -23.3910 -23.3767 -23.2936 -23.2911 -23.2533
   -23.1788 -23.0797  -9.7283  -8.3569  -4.1711  -2.8182  -1.5736   0.1297
     2.2525   2.9321

          k = 0.1667 0.2887 0.0000 ( 20113 PWs)   bands (ev):

   -23.5441 -23.5305 -23.4752 -23.4149 -23.3767 -23.3132 -23.2681 -23.2642
   -23.1566 -23.1024 -10.6788  -6.8002  -3.6492  -3.5069  -0.5186   0.4407
     1.1662   2.3795

          k = 0.1667 0.3368 0.0000 ( 20110 PWs)   bands (ev):

   -23.5482 -23.5291 -23.4813 -23.4103 -23.3692 -23.3082 -23.2741 -23.2677
   -23.1625 -23.0940 -10.5007  -7.1413  -3.8725  -3.3846  -0.7162   0.5982
     1.4203   2.4454

          k = 0.1667 0.3849 0.0000 ( 20115 PWs)   bands (ev):

   -23.5518 -23.5272 -23.4874 -23.4051 -23.3639 -23.3050 -23.2795 -23.2676
   -23.1693 -23.0865 -10.3021  -7.4864  -4.0624  -3.2333  -0.9420   0.6390
     1.7942   2.3724

          k = 0.1667 0.4330 0.0000 ( 20139 PWs)   bands (ev):

   -23.5547 -23.5247 -23.4933 -23.3997 -23.3617 -23.3031 -23.2842 -23.2638
   -23.1767 -23.0804 -10.0895  -7.8206  -4.2127  -3.0642  -1.1771   0.6384
     2.1606   2.2628

          k = 0.1667 0.4811 0.0000 ( 20145 PWs)   bands (ev):

   -23.5568 -23.5219 -23.4985 -23.3945 -23.3622 -23.3013 -23.2884 -23.2582
   -23.1837 -23.0759  -9.8774  -8.1238  -4.3210  -2.8932  -1.3993   0.6274
     2.1522   2.5065

          k = 0.1667 0.5292 0.0000 ( 20147 PWs)   bands (ev):

   -23.5581 -23.5193 -23.5026 -23.3902 -23.3642 -23.2988 -23.2922 -23.2531
   -23.1893 -23.0731  -9.6991  -8.3583  -4.3862  -2.7510  -1.5738   0.6174
     2.0907   2.7993

          k = 0.1667 0.5774 0.0000 ( 20135 PWs)   bands (ev):

   -23.5586 -23.5180 -23.5044 -23.3884 -23.3653 -23.2962 -23.2951 -23.2510
   -23.1915 -23.0722  -9.6226  -8.4537  -4.4080  -2.6913  -1.6446   0.6135
     2.0696   2.9657

          k = 0.2083 0.3608 0.0000 ( 20119 PWs)   bands (ev):

   -23.5525 -23.5270 -23.4870 -23.4056 -23.3602 -23.3079 -23.2792 -23.2676
   -23.1708 -23.0855 -10.3131  -7.4580  -4.1031  -3.2390  -0.9121   0.9313
     1.5414   2.4152

          k = 0.2083 0.4090 0.0000 ( 20133 PWs)   bands (ev):

   -23.5563 -23.5245 -23.4926 -23.4002 -23.3534 -23.3090 -23.2839 -23.2643
   -23.1799 -23.0782 -10.1068  -7.7752  -4.2970  -3.0690  -1.1316   1.0879
     1.8580   2.2434

          k = 0.2083 0.4571 0.0000 ( 20137 PWs)   bands (ev):

   -23.5594 -23.5217 -23.4978 -23.3947 -23.3502 -23.3089 -23.2884 -23.2589
   -23.1891 -23.0724  -9.8901  -8.0798  -4.4457  -2.8866  -1.3568   1.1339
     2.0695   2.2822

          k = 0.2083 0.5052 0.0000 ( 20163 PWs)   bands (ev):

   -23.5615 -23.5189 -23.5022 -23.3897 -23.3506 -23.3063 -23.2929 -23.2532
   -23.1973 -23.0684  -9.6822  -8.3484  -4.5460  -2.7116  -1.5631   1.1494
     1.9623   2.6523

          k = 0.2083 0.5533 0.0000 ( 20157 PWs)   bands (ev):

   -23.5626 -23.5167 -23.5051 -23.3865 -23.3521 -23.3021 -23.2974 -23.2491
   -23.2026 -23.0663  -9.5339  -8.5278  -4.5964  -2.5884  -1.7027   1.1553
     1.9029   2.9406

          k = 0.2500 0.4330 0.0000 ( 20149 PWs)   bands (ev):

   -23.5603 -23.5216 -23.4975 -23.3948 -23.3442 -23.3134 -23.2884 -23.2592
   -23.1909 -23.0711  -9.8946  -8.0634  -4.4895  -2.8854  -1.3408   1.4532
     2.0263   2.0876

          k = 0.2500 0.4811 0.0000 ( 20153 PWs)   bands (ev):

   -23.5633 -23.5187 -23.5019 -23.3894 -23.3389 -23.3146 -23.2933 -23.2533
   -23.2016 -23.0659  -9.6748  -8.3394  -4.6310  -2.6940  -1.5533   1.6127
     1.9419   2.3955

          k = 0.2500 0.5292 0.0000 ( 20133 PWs)   bands (ev):

   -23.5651 -23.5161 -23.5054 -23.3853 -23.3384 -23.3107 -23.2986 -23.2475
   -23.2105 -23.0626  -9.4737  -8.5751  -4.7172  -2.5199  -1.7411   1.6787
     1.8286   2.7983

          k = 0.2500 0.5774 0.0000 ( 20123 PWs)   bands (ev):

   -23.5658 -23.5147 -23.5071 -23.3837 -23.3391 -23.3048 -23.3044 -23.2448
   -23.2144 -23.0615  -9.3753  -8.6851  -4.7462  -2.4361  -1.8297   1.7254
     1.7603   3.0127

          k = 0.2917 0.5052 0.0000 ( 20137 PWs)   bands (ev):

   -23.5660 -23.5159 -23.5055 -23.3849 -23.3293 -23.3180 -23.2990 -23.2469
   -23.2133 -23.0614  -9.4522  -8.5915  -4.7589  -2.4957  -1.7547   1.7280
     2.1291   2.5615

          k = 0.2917 0.5533 0.0000 ( 20132 PWs)   bands (ev):

   -23.5675 -23.5135 -23.5083 -23.3822 -23.3265 -23.3138 -23.3060 -23.2409
   -23.2224 -23.0591  -9.2553  -8.8031  -4.8240  -2.3227  -1.9293   1.6845
     2.2654   2.8576

          k = 0.3333 0.5774 0.0000 ( 20133 PWs)   bands (ev):

   -23.5683 -23.5109 -23.5109 -23.3810 -23.3170 -23.3144 -23.3143 -23.2326
   -23.2326 -23.0578  -9.0307  -9.0307  -4.8602  -2.1244  -2.1244   1.6514
     2.6944   2.6944

     the Fermi energy is    -2.2613 ev

!    total energy              =    -326.41825739 Ry
     estimated scf accuracy    <       0.00000042 Ry
     smearing contrib. (-TS)   =       0.00133207 Ry
     internal energy E=F+TS    =    -326.41958946 Ry

     The total energy is F=E-TS. E is the sum of the following terms:
     one-electron contribution =    -856.47319765 Ry
     hartree contribution      =     435.94021059 Ry
     xc contribution           =     -95.00806772 Ry
     ewald contribution        =     189.12146532 Ry

     convergence has been achieved in   7 iterations

     Writing output data file ../tmp/stanene.save/

     init_run     :      6.79s CPU      7.11s WALL (       1 calls)
     electrons    :    115.60s CPU    120.36s WALL (       1 calls)

     Called by init_run:
     wfcinit      :      5.70s CPU      5.88s WALL (       1 calls)
     potinit      :      0.31s CPU      0.35s WALL (       1 calls)
     hinit0       :      0.41s CPU      0.42s WALL (       1 calls)

     Called by electrons:
     c_bands      :     98.26s CPU    101.03s WALL (       7 calls)
     sum_band     :     13.08s CPU     14.29s WALL (       7 calls)
     v_of_rho     :      1.55s CPU      1.69s WALL (       8 calls)
     newd         :      2.49s CPU      3.19s WALL (       8 calls)
     mix_rho      :      0.26s CPU      0.28s WALL (       7 calls)

     Called by c_bands:
     init_us_2    :      0.88s CPU      0.90s WALL (     915 calls)
     cegterg      :     94.91s CPU     97.66s WALL (     427 calls)

     Called by *egterg:
     cdiaghg      :      1.51s CPU      1.53s WALL (    2333 calls)
     h_psi        :     60.08s CPU     62.78s WALL (    2394 calls)
     s_psi        :      4.70s CPU      4.74s WALL (    2394 calls)
     g_psi        :      0.42s CPU      0.42s WALL (    1906 calls)

     Called by h_psi:
     h_psi:calbec :      7.52s CPU      7.80s WALL (    2394 calls)
     vloc_psi     :     47.40s CPU     49.73s WALL (    2394 calls)
     add_vuspsi   :      4.88s CPU      4.98s WALL (    2394 calls)

     General routines
     calbec       :      9.77s CPU     10.13s WALL (    2821 calls)
     fft          :      1.67s CPU      1.77s WALL (     102 calls)
     ffts         :      0.06s CPU      0.06s WALL (      15 calls)
     fftw         :     49.54s CPU     51.80s WALL (   54794 calls)
     interpolate  :      0.20s CPU      0.22s WALL (       8 calls)

     Parallel routines
     fft_scatt_xy :      5.10s CPU      5.43s WALL (   54911 calls)
     fft_scatt_yz :     24.77s CPU     25.61s WALL (   54911 calls)

     PWSCF        :   2m 2.75s CPU   2m 8.06s WALL


   This run was terminated on:  23:28:45  23Jan2024            

=------------------------------------------------------------------------------=
   JOB DONE.
=------------------------------------------------------------------------------=
