
     Program PWSCF v.6.7MaX starts on 23Jan2024 at 23:22:21 

     This program is part of the open-source Quantum ESPRESSO suite
     for quantum simulation of materials; please cite
         "P. Giannozzi et al., J. Phys.:Condens. Matter 21 395502 (2009);
         "P. Giannozzi et al., J. Phys.:Condens. Matter 29 465901 (2017);
          URL http://www.quantum-espresso.org", 
     in publications or presentations arising from this work. More details at
     http://www.quantum-espresso.org/quote

     Parallel version (MPI), running on     6 processors

     MPI processes distributed on     1 nodes
     R & G space division:  proc/nbgrp/npool/nimage =       6
     Waiting for input...
     Reading input from standard input

     Current dimensions of program PWSCF are:
     Max number of different atomic species (ntypx) = 10
     Max number of k-points (npk) =  40000
     Max angular momentum in pseudopotentials (lmaxx) =  3

     Subspace diagonalization in iterative solution of the eigenvalue problem:
     one sub-group per band group will be used
     scalapack distributed-memory algorithm (size of sub-group:  2*  2 procs)


     Parallelization info
     --------------------
     sticks:   dense  smooth     PW     G-vecs:    dense   smooth      PW
     Min         431     214     61                75909    26818    4015
     Max         432     215     62                75924    26841    4025
     Sum        2587    1285    367               455489   160939   24117



     bravais-lattice index     =            4
     lattice parameter (alat)  =       8.8506  a.u.
     unit-cell volume          =    2563.9136 (a.u.)^3
     number of atoms/cell      =            2
     number of atomic types    =            1
     number of electrons       =        28.00
     number of Kohn-Sham states=           18
     kinetic-energy cutoff     =      60.0000  Ry
     charge density cutoff     =     480.0000  Ry
     scf convergence threshold =      1.0E-06
     mixing beta               =       0.7000
     number of iterations used =            8  plain     mixing
     Exchange-correlation= SLA  PW   PBE  PBE
                           (   1   4   3   4   0   0   0)

     celldm(1)=   8.850584  celldm(2)=   0.000000  celldm(3)=   4.270286
     celldm(4)=   0.000000  celldm(5)=   0.000000  celldm(6)=   0.000000

     crystal axes: (cart. coord. in units of alat)
               a(1) = (   1.000000   0.000000   0.000000 )  
               a(2) = (  -0.500000   0.866025   0.000000 )  
               a(3) = (   0.000000   0.000000   4.270286 )  

     reciprocal axes: (cart. coord. in units 2 pi/alat)
               b(1) = (  1.000000  0.577350 -0.000000 )  
               b(2) = (  0.000000  1.154701  0.000000 )  
               b(3) = (  0.000000 -0.000000  0.234176 )  


     PseudoPot. # 1 for Sn read from file:
     ../pseudo/Sn_pbe_v1.uspp.F.UPF
     MD5 check sum: 4cf58ce39ec5d5d420df3dd08604eb00
     Pseudo is Ultrasoft + core correction, Zval = 14.0
     Generated by new atomic code, or converted to UPF format
     Using radial grid of  891 points,  6 beta functions with: 
                l(1) =   0
                l(2) =   0
                l(3) =   1
                l(4) =   1
                l(5) =   2
                l(6) =   2
     Q(r) pseudized with  6 coefficients,  rinner =    1.200   1.200   1.200
                                                       1.200   1.200

     atomic species   valence    mass     pseudopotential
        Sn            14.00   118.71000     Sn( 1.00)

      6 Sym. Ops. (no inversion) found



   Cartesian axes

     site n.     atom                  positions (alat units)
         1           Sn  tau(   1) = (   0.0000000   0.5773503   2.1351428  )
         2           Sn  tau(   2) = (   0.5000000   0.2886751   1.9552503  )

     number of k points=    61  Marzari-Vanderbilt smearing, width (Ry)=  0.0100
                       cart. coord. in units 2pi/alat
        k(    1) = (   0.0000000   0.0000000   0.0000000), wk =   0.0034722
        k(    2) = (   0.0000000   0.0481125   0.0000000), wk =   0.0208333
        k(    3) = (   0.0000000   0.0962250   0.0000000), wk =   0.0208333
        k(    4) = (   0.0000000   0.1443376   0.0000000), wk =   0.0208333
        k(    5) = (   0.0000000   0.1924501   0.0000000), wk =   0.0208333
        k(    6) = (   0.0000000   0.2405626   0.0000000), wk =   0.0208333
        k(    7) = (   0.0000000   0.2886751   0.0000000), wk =   0.0208333
        k(    8) = (   0.0000000   0.3367877   0.0000000), wk =   0.0208333
        k(    9) = (   0.0000000   0.3849002   0.0000000), wk =   0.0208333
        k(   10) = (   0.0000000   0.4330127   0.0000000), wk =   0.0208333
        k(   11) = (   0.0000000   0.4811252   0.0000000), wk =   0.0208333
        k(   12) = (   0.0000000   0.5292377   0.0000000), wk =   0.0208333
        k(   13) = (   0.0000000  -0.5773503   0.0000000), wk =   0.0104167
        k(   14) = (   0.0416667   0.0721688   0.0000000), wk =   0.0208333
        k(   15) = (   0.0416667   0.1202813   0.0000000), wk =   0.0416667
        k(   16) = (   0.0416667   0.1683938   0.0000000), wk =   0.0416667
        k(   17) = (   0.0416667   0.2165064   0.0000000), wk =   0.0416667
        k(   18) = (   0.0416667   0.2646189   0.0000000), wk =   0.0416667
        k(   19) = (   0.0416667   0.3127314   0.0000000), wk =   0.0416667
        k(   20) = (   0.0416667   0.3608439   0.0000000), wk =   0.0416667
        k(   21) = (   0.0416667   0.4089564   0.0000000), wk =   0.0416667
        k(   22) = (   0.0416667   0.4570690   0.0000000), wk =   0.0416667
        k(   23) = (   0.0416667   0.5051815   0.0000000), wk =   0.0416667
        k(   24) = (   0.0416667   0.5532940   0.0000000), wk =   0.0416667
        k(   25) = (   0.0833333   0.1443376   0.0000000), wk =   0.0208333
        k(   26) = (   0.0833333   0.1924501   0.0000000), wk =   0.0416667
        k(   27) = (   0.0833333   0.2405626   0.0000000), wk =   0.0416667
        k(   28) = (   0.0833333   0.2886751   0.0000000), wk =   0.0416667
        k(   29) = (   0.0833333   0.3367877   0.0000000), wk =   0.0416667
        k(   30) = (   0.0833333   0.3849002   0.0000000), wk =   0.0416667
        k(   31) = (   0.0833333   0.4330127   0.0000000), wk =   0.0416667
        k(   32) = (   0.0833333   0.4811252   0.0000000), wk =   0.0416667
        k(   33) = (   0.0833333   0.5292377   0.0000000), wk =   0.0416667
        k(   34) = (   0.0833333   0.5773503   0.0000000), wk =   0.0208333
        k(   35) = (   0.1250000   0.2165064   0.0000000), wk =   0.0208333
        k(   36) = (   0.1250000   0.2646189   0.0000000), wk =   0.0416667
        k(   37) = (   0.1250000   0.3127314   0.0000000), wk =   0.0416667
        k(   38) = (   0.1250000   0.3608439   0.0000000), wk =   0.0416667
        k(   39) = (   0.1250000   0.4089564   0.0000000), wk =   0.0416667
        k(   40) = (   0.1250000   0.4570690   0.0000000), wk =   0.0416667
        k(   41) = (   0.1250000   0.5051815   0.0000000), wk =   0.0416667
        k(   42) = (   0.1250000   0.5532940   0.0000000), wk =   0.0416667
        k(   43) = (   0.1666667   0.2886751   0.0000000), wk =   0.0208333
        k(   44) = (   0.1666667   0.3367877   0.0000000), wk =   0.0416667
        k(   45) = (   0.1666667   0.3849002   0.0000000), wk =   0.0416667
        k(   46) = (   0.1666667   0.4330127   0.0000000), wk =   0.0416667
        k(   47) = (   0.1666667   0.4811252   0.0000000), wk =   0.0416667
        k(   48) = (   0.1666667   0.5292377   0.0000000), wk =   0.0416667
        k(   49) = (   0.1666667   0.5773503   0.0000000), wk =   0.0208333
        k(   50) = (   0.2083333   0.3608439   0.0000000), wk =   0.0208333
        k(   51) = (   0.2083333   0.4089564   0.0000000), wk =   0.0416667
        k(   52) = (   0.2083333   0.4570690   0.0000000), wk =   0.0416667
        k(   53) = (   0.2083333   0.5051815   0.0000000), wk =   0.0416667
        k(   54) = (   0.2083333   0.5532940   0.0000000), wk =   0.0416667
        k(   55) = (   0.2500000   0.4330127   0.0000000), wk =   0.0208333
        k(   56) = (   0.2500000   0.4811252   0.0000000), wk =   0.0416667
        k(   57) = (   0.2500000   0.5292377   0.0000000), wk =   0.0416667
        k(   58) = (   0.2500000   0.5773503   0.0000000), wk =   0.0208333
        k(   59) = (   0.2916667   0.5051815   0.0000000), wk =   0.0208333
        k(   60) = (   0.2916667   0.5532940   0.0000000), wk =   0.0416667
        k(   61) = (   0.3333333   0.5773503   0.0000000), wk =   0.0069444

     Dense  grid:   455489 G-vectors     FFT dimensions: (  64,  64, 270)

     Smooth grid:   160939 G-vectors     FFT dimensions: (  45,  45, 192)

     Estimated max dynamical RAM per process >     322.30 MB

     Estimated total dynamical RAM >       1.89 GB

     Initial potential from superposition of free atoms

     starting charge   25.99991, renormalised to   28.00000

     negative rho (up, down):  5.949E-04 0.000E+00
     Starting wfcs are   18 randomized atomic wfcs

     total cpu time spent up to now is        5.4 secs

     Self-consistent Calculation

     iteration #  1     ecut=    60.00 Ry     beta= 0.70
     Davidson diagonalization with overlap
     ethr =  1.00E-02,  avg # of iterations =  8.8

     negative rho (up, down):  2.921E-05 0.000E+00

     total cpu time spent up to now is       26.7 secs

     total energy              =    -325.45899908 Ry
     estimated scf accuracy    <       2.46674572 Ry

     iteration #  2     ecut=    60.00 Ry     beta= 0.70
     Davidson diagonalization with overlap
     ethr =  8.81E-03,  avg # of iterations =  2.1

     negative rho (up, down):  4.249E-05 0.000E+00

     total cpu time spent up to now is       42.6 secs

     total energy              =    -326.35865509 Ry
     estimated scf accuracy    <       0.38090869 Ry

     iteration #  3     ecut=    60.00 Ry     beta= 0.70
     Davidson diagonalization with overlap
     ethr =  1.36E-03,  avg # of iterations =  2.2

     negative rho (up, down):  6.366E-05 0.000E+00

     total cpu time spent up to now is       59.5 secs

     total energy              =    -326.41658604 Ry
     estimated scf accuracy    <       0.00621363 Ry

     iteration #  4     ecut=    60.00 Ry     beta= 0.70
     Davidson diagonalization with overlap
     c_bands:  1 eigenvalues not converged
     ethr =  2.22E-05,  avg # of iterations =  8.4

     negative rho (up, down):  8.177E-05 0.000E+00

     total cpu time spent up to now is       79.9 secs

     total energy              =    -326.41861159 Ry
     estimated scf accuracy    <       0.00034274 Ry

     iteration #  5     ecut=    60.00 Ry     beta= 0.70
     Davidson diagonalization with overlap
     c_bands:  1 eigenvalues not converged
     ethr =  1.22E-06,  avg # of iterations =  5.1

     negative rho (up, down):  8.316E-05 0.000E+00

     total cpu time spent up to now is       96.9 secs

     total energy              =    -326.41864513 Ry
     estimated scf accuracy    <       0.00003812 Ry

     iteration #  6     ecut=    60.00 Ry     beta= 0.70
     Davidson diagonalization with overlap
     ethr =  1.36E-07,  avg # of iterations =  2.2

     negative rho (up, down):  8.490E-05 0.000E+00

     total cpu time spent up to now is      111.3 secs

     total energy              =    -326.41865277 Ry
     estimated scf accuracy    <       0.00001428 Ry

     iteration #  7     ecut=    60.00 Ry     beta= 0.70
     Davidson diagonalization with overlap
     ethr =  5.10E-08,  avg # of iterations =  2.0

     negative rho (up, down):  8.560E-05 0.000E+00

     total cpu time spent up to now is      124.4 secs

     End of self-consistent calculation

          k = 0.0000 0.0000 0.0000 ( 20025 PWs)   bands (ev):

   -23.5256 -23.5256 -23.4473 -23.4473 -23.4326 -23.3626 -23.2206 -23.2206
   -23.1646 -23.1646 -11.3712  -5.2732  -2.4015  -2.4015  -1.9420  -0.0643
     1.0936   1.0936

          k = 0.0000 0.0481 0.0000 ( 20035 PWs)   bands (ev):

   -23.5265 -23.5264 -23.4490 -23.4461 -23.4302 -23.3614 -23.2231 -23.2229
   -23.1633 -23.1623 -11.3565  -5.2963  -2.6908  -2.4341  -1.6345  -0.0632
     1.0636   1.1494

          k = 0.0000 0.0962 0.0000 ( 20005 PWs)   bands (ev):

   -23.5290 -23.5285 -23.4528 -23.4428 -23.4248 -23.3577 -23.2295 -23.2290
   -23.1601 -23.1565 -11.3124  -5.3739  -3.0776  -2.5246  -1.1986  -0.0631
     1.0082   1.3087

          k = 0.0000 0.1443 0.0000 ( 20065 PWs)   bands (ev):

   -23.5322 -23.5314 -23.4575 -23.4378 -23.4184 -23.3515 -23.2381 -23.2374
   -23.1563 -23.1489 -11.2393  -5.5267  -3.3875  -2.6563  -0.8348  -0.0730
     1.0123   1.5516

          k = 0.0000 0.1925 0.0000 ( 20113 PWs)   bands (ev):

   -23.5355 -23.5348 -23.4629 -23.4318 -23.4121 -23.3432 -23.2476 -23.2468
   -23.1531 -23.1408 -11.1376  -5.7706  -3.5827  -2.8104  -0.6341  -0.0960
     1.1570   2.1784

          k = 0.0000 0.2406 0.0000 ( 20071 PWs)   bands (ev):

   -23.5381 -23.5381 -23.4688 -23.4255 -23.4068 -23.3330 -23.2570 -23.2560
   -23.1509 -23.1328 -11.0083  -6.0966  -3.6633  -2.9708  -0.6214  -0.1250
     1.4160   2.2894

          k = 0.0000 0.2887 0.0000 ( 20087 PWs)   bands (ev):

   -23.5411 -23.5398 -23.4750 -23.4192 -23.4030 -23.3215 -23.2661 -23.2643
   -23.1501 -23.1254 -10.8526  -6.4751  -3.6539  -3.1258  -0.7265  -0.1732
     1.6522   2.4644

          k = 0.0000 0.3368 0.0000 ( 20109 PWs)   bands (ev):

   -23.5437 -23.5403 -23.4815 -23.4135 -23.4006 -23.3097 -23.2743 -23.2709
   -23.1507 -23.1187 -10.6731  -6.8750  -3.5827  -3.2669  -0.8803  -0.2537
     1.8063   2.6669

          k = 0.0000 0.3849 0.0000 ( 20145 PWs)   bands (ev):

   -23.5458 -23.5395 -23.4882 -23.4084 -23.3996 -23.2994 -23.2813 -23.2746
   -23.1526 -23.1131 -10.4741  -7.2719  -3.4729  -3.3884  -1.0505  -0.3581
     1.9378   2.8821

          k = 0.0000 0.4330 0.0000 ( 20161 PWs)   bands (ev):

   -23.5473 -23.5375 -23.4948 -23.4044 -23.3996 -23.2937 -23.2870 -23.2731
   -23.1553 -23.1086 -10.2636  -7.6453  -3.4863  -3.3441  -1.2213  -0.4658
     2.0861   3.1007

          k = 0.0000 0.4811 0.0000 ( 20157 PWs)   bands (ev):

   -23.5484 -23.5347 -23.5009 -23.4014 -23.3999 -23.2928 -23.2912 -23.2674
   -23.1582 -23.1053 -10.0584  -7.9709  -3.5578  -3.2178  -1.3764  -0.5558
     2.2509   3.2802

          k = 0.0000 0.5292 0.0000 ( 20142 PWs)   bands (ev):

   -23.5490 -23.5319 -23.5056 -23.4004 -23.3996 -23.2937 -23.2932 -23.2623
   -23.1606 -23.1033  -9.8931  -8.2100  -3.6014  -3.1211  -1.4905  -0.6142
     2.4009   3.3373

          k = 0.0000-0.5774 0.0000 ( 20152 PWs)   bands (ev):

   -23.5492 -23.5306 -23.5076 -23.4006 -23.3991 -23.2945 -23.2935 -23.2603
   -23.1615 -23.1026  -9.8257  -8.3023  -3.6161  -3.0841  -1.5336  -0.6343
     2.4683   3.3893

          k = 0.0417 0.0722 0.0000 ( 20017 PWs)   bands (ev):

   -23.5281 -23.5279 -23.4516 -23.4440 -23.4264 -23.3589 -23.2276 -23.2270
   -23.1612 -23.1582 -11.3271  -5.3467  -2.9769  -2.4999  -1.3087  -0.0626
     1.0113   1.2656

          k = 0.0417 0.1203 0.0000 ( 20039 PWs)   bands (ev):

   -23.5309 -23.5305 -23.4556 -23.4402 -23.4204 -23.3540 -23.2352 -23.2340
   -23.1581 -23.1513 -11.2685  -5.4622  -3.2845  -2.6209  -0.9273  -0.0684
     0.9576   1.4872

          k = 0.0417 0.1684 0.0000 ( 20081 PWs)   bands (ev):

   -23.5343 -23.5334 -23.4605 -23.4351 -23.4137 -23.3469 -23.2442 -23.2427
   -23.1551 -23.1432 -11.1811  -5.6622  -3.5128  -2.7749  -0.6318  -0.0894
     0.9960   1.7820

          k = 0.0417 0.2165 0.0000 ( 20075 PWs)   bands (ev):

   -23.5379 -23.5361 -23.4660 -23.4293 -23.4074 -23.3378 -23.2534 -23.2518
   -23.1529 -23.1350 -11.0655  -5.9496  -3.6342  -2.9419  -0.5186  -0.1150
     1.1860   2.0982

          k = 0.0417 0.2646 0.0000 ( 20107 PWs)   bands (ev):

   -23.5412 -23.5381 -23.4721 -23.4233 -23.4023 -23.3272 -23.2624 -23.2607
   -23.1518 -23.1271 -10.9228  -6.3031  -3.6600  -3.1064  -0.5822  -0.1371
     1.4641   2.2928

          k = 0.0417 0.3127 0.0000 ( 20105 PWs)   bands (ev):

   -23.5441 -23.5391 -23.4785 -23.4175 -23.3987 -23.3157 -23.2708 -23.2682
   -23.1522 -23.1198 -10.7550  -6.6919  -3.6179  -3.2554  -0.7319  -0.1836
     1.7011   2.4985

          k = 0.0417 0.3608 0.0000 ( 20127 PWs)   bands (ev):

   -23.5465 -23.5388 -23.4851 -23.4123 -23.3965 -23.3048 -23.2782 -23.2733
   -23.1539 -23.1135 -10.5650  -7.0894  -3.5483  -3.3652  -0.9126  -0.2601
     1.8665   2.7234

          k = 0.0417 0.4090 0.0000 ( 20135 PWs)   bands (ev):

   -23.5483 -23.5374 -23.4918 -23.4079 -23.3957 -23.2969 -23.2845 -23.2744
   -23.1566 -23.1083 -10.3588  -7.4742  -3.5598  -3.3420  -1.1022  -0.3511
     2.0158   2.9073

          k = 0.0417 0.4571 0.0000 ( 20146 PWs)   bands (ev):

   -23.5496 -23.5351 -23.4981 -23.4043 -23.3958 -23.2942 -23.2892 -23.2702
   -23.1599 -23.1042 -10.1478  -7.8254  -3.6298  -3.2247  -1.2844  -0.4366
     2.1750   3.0339

          k = 0.0417 0.5052 0.0000 ( 20148 PWs)   bands (ev):

   -23.5505 -23.5322 -23.5037 -23.4015 -23.3966 -23.2943 -23.2923 -23.2643
   -23.1629 -23.1015  -9.9560  -8.1133  -3.6846  -3.1090  -1.4368  -0.5009
     2.3306   3.1208

          k = 0.0417 0.5533 0.0000 ( 20150 PWs)   bands (ev):

   -23.5509 -23.5300 -23.5072 -23.3994 -23.3978 -23.2949 -23.2937 -23.2606
   -23.1648 -23.1001  -9.8310  -8.2871  -3.7131  -3.0364  -1.5273  -0.5350
     2.4365   3.2202

          k = 0.0833 0.1443 0.0000 ( 20061 PWs)   bands (ev):

   -23.5338 -23.5331 -23.4594 -23.4367 -23.4139 -23.3483 -23.2431 -23.2411
   -23.1562 -23.1437 -11.1956  -5.6262  -3.4775  -2.7791  -0.6041  -0.0900
     0.8996   1.7840

          k = 0.0833 0.1925 0.0000 ( 20087 PWs)   bands (ev):

   -23.5376 -23.5352 -23.4643 -23.4323 -23.4067 -23.3406 -23.2517 -23.2493
   -23.1550 -23.1353 -11.0942  -5.8730  -3.5997  -2.9661  -0.3485  -0.1314
     0.9353   2.2344

          k = 0.0833 0.2406 0.0000 ( 20121 PWs)   bands (ev):

   -23.5415 -23.5368 -23.4700 -23.4272 -23.3999 -23.3315 -23.2603 -23.2578
   -23.1547 -23.1268 -10.9652  -6.1910  -3.6410  -3.1556  -0.3468  -0.0961
     1.1311   2.2443

          k = 0.0833 0.2887 0.0000 ( 20106 PWs)   bands (ev):

   -23.5452 -23.5376 -23.4762 -23.4218 -23.3944 -23.3214 -23.2684 -23.2657
   -23.1556 -23.1187 -10.8099  -6.5552  -3.6212  -3.3251  -0.5092  -0.0584
     1.4330   2.3304

          k = 0.0833 0.3368 0.0000 ( 20114 PWs)   bands (ev):

   -23.5483 -23.5374 -23.4827 -23.4166 -23.3904 -23.3112 -23.2758 -23.2717
   -23.1579 -23.1115 -10.6306  -6.9399  -3.6080  -3.4157  -0.7142  -0.0737
     1.7218   2.4810

          k = 0.0833 0.3849 0.0000 ( 20126 PWs)   bands (ev):

   -23.5509 -23.5363 -23.4893 -23.4117 -23.3883 -23.3028 -23.2822 -23.2743
   -23.1612 -23.1052 -10.4315  -7.3237  -3.6942  -3.3458  -0.9350  -0.1197
     1.9409   2.6399

          k = 0.0833 0.4330 0.0000 ( 20149 PWs)   bands (ev):

   -23.5527 -23.5342 -23.4958 -23.4071 -23.3880 -23.2982 -23.2874 -23.2720
   -23.1653 -23.1002 -10.2205  -7.6873  -3.7941  -3.2140  -1.1551  -0.1759
     2.1172   2.7388

          k = 0.0833 0.4811 0.0000 ( 20151 PWs)   bands (ev):

   -23.5540 -23.5315 -23.5017 -23.4030 -23.3891 -23.2971 -23.2913 -23.2664
   -23.1694 -23.0965 -10.0136  -8.0075  -3.8710  -3.0748  -1.3542  -0.2267
     2.2637   2.8250

          k = 0.0833 0.5292 0.0000 ( 20157 PWs)   bands (ev):

   -23.5548 -23.5289 -23.5062 -23.3995 -23.3910 -23.2968 -23.2940 -23.2614
   -23.1726 -23.0942  -9.8454  -8.2452  -3.9184  -2.9631  -1.5018  -0.2610
     2.3573   2.9581

          k = 0.0833 0.5774 0.0000 ( 20154 PWs)   bands (ev):

   -23.5550 -23.5276 -23.5081 -23.3977 -23.3924 -23.2965 -23.2952 -23.2594
   -23.1739 -23.0935  -9.7760  -8.3380  -3.9344  -2.9187  -1.5583  -0.2731
     2.3866   3.0796

          k = 0.1250 0.2165 0.0000 ( 20099 PWs)   bands (ev):

   -23.5416 -23.5364 -23.4691 -23.4287 -23.3988 -23.3332 -23.2596 -23.2568
   -23.1559 -23.1265 -10.9793  -6.1520  -3.6263  -3.1882  -0.2299  -0.0483
     0.9368   2.2532

          k = 0.1250 0.2646 0.0000 ( 20119 PWs)   bands (ev):

   -23.5458 -23.5369 -23.4749 -23.4244 -23.3912 -23.3250 -23.2673 -23.2642
   -23.1580 -23.1177 -10.8374  -6.4813  -3.5990  -3.4042  -0.3736   0.1464
     1.0957   2.3052

          k = 0.1250 0.3127 0.0000 ( 20122 PWs)   bands (ev):

   -23.5497 -23.5365 -23.4811 -23.4195 -23.3848 -23.3166 -23.2743 -23.2704
   -23.1614 -23.1095 -10.6702  -6.8399  -3.6429  -3.4813  -0.5679   0.2183
     1.4052   2.3740

          k = 0.1250 0.3608 0.0000 ( 20112 PWs)   bands (ev):

   -23.5531 -23.5354 -23.4876 -23.4144 -23.3805 -23.3093 -23.2806 -23.2737
   -23.1658 -23.1021 -10.4807  -7.2088  -3.8100  -3.3697  -0.7928   0.2220
     1.7508   2.4410

          k = 0.1250 0.4090 0.0000 ( 20146 PWs)   bands (ev):

   -23.5558 -23.5334 -23.4940 -23.4093 -23.3784 -23.3045 -23.2860 -23.2728
   -23.1711 -23.0959 -10.2740  -7.5705  -3.9540  -3.2228  -1.0299   0.1984
     2.0406   2.4657

          k = 0.1250 0.4571 0.0000 ( 20145 PWs)   bands (ev):

   -23.5579 -23.5308 -23.4999 -23.4044 -23.3787 -23.3022 -23.2905 -23.2681
   -23.1768 -23.0910 -10.0608  -7.9062  -4.0643  -3.0637  -1.2596   0.1672
     2.2179   2.5258

          k = 0.1250 0.5052 0.0000 ( 20141 PWs)   bands (ev):

   -23.5592 -23.5280 -23.5050 -23.3998 -23.3806 -23.3008 -23.2940 -23.2625
   -23.1818 -23.0877  -9.8641  -8.1873  -4.1386  -2.9165  -1.4555   0.1404
     2.2552   2.7136

          k = 0.1250 0.5533 0.0000 ( 20145 PWs)   bands (ev):

   -23.5599 -23.5259 -23.5083 -23.3966 -23.3827 -23.2994 -23.2968 -23.2587
   -23.1849 -23.0860  -9.7330  -8.3615  -4.1759  -2.8209  -1.5760   0.1252
     2.2507   2.9306

          k = 0.1667 0.2887 0.0000 ( 20113 PWs)   bands (ev):

   -23.5502 -23.5362 -23.4805 -23.4206 -23.3825 -23.3188 -23.2738 -23.2698
   -23.1627 -23.1087 -10.6835  -6.8045  -3.6540  -3.5098  -0.5209   0.4360
     1.1631   2.3779

          k = 0.1667 0.3368 0.0000 ( 20110 PWs)   bands (ev):

   -23.5543 -23.5349 -23.4867 -23.4159 -23.3750 -23.3140 -23.2798 -23.2732
   -23.1686 -23.1003 -10.5054  -7.1457  -3.8773  -3.3873  -0.7186   0.5936
     1.4174   2.4437

          k = 0.1667 0.3849 0.0000 ( 20115 PWs)   bands (ev):

   -23.5579 -23.5329 -23.4928 -23.4107 -23.3698 -23.3109 -23.2851 -23.2730
   -23.1754 -23.0928 -10.3068  -7.4909  -4.0671  -3.2360  -0.9444   0.6345
     1.7916   2.3703

          k = 0.1667 0.4330 0.0000 ( 20139 PWs)   bands (ev):

   -23.5609 -23.5304 -23.4987 -23.4053 -23.3675 -23.3090 -23.2899 -23.2692
   -23.1827 -23.0868 -10.0942  -7.8252  -4.2175  -3.0669  -1.1795   0.6340
     2.1589   2.2605

          k = 0.1667 0.4811 0.0000 ( 20145 PWs)   bands (ev):

   -23.5630 -23.5275 -23.5039 -23.4001 -23.3681 -23.3071 -23.2941 -23.2636
   -23.1898 -23.0822  -9.8821  -8.1284  -4.3258  -2.8959  -1.4017   0.6229
     2.1502   2.5050

          k = 0.1667 0.5292 0.0000 ( 20147 PWs)   bands (ev):

   -23.5643 -23.5249 -23.5080 -23.3958 -23.3702 -23.3046 -23.2979 -23.2585
   -23.1953 -23.0795  -9.7038  -8.3629  -4.3910  -2.7536  -1.5763   0.6128
     2.0887   2.7980

          k = 0.1667 0.5774 0.0000 ( 20135 PWs)   bands (ev):

   -23.5648 -23.5236 -23.5098 -23.3940 -23.3714 -23.3020 -23.3008 -23.2564
   -23.1975 -23.0785  -9.6273  -8.4584  -4.4128  -2.6939  -1.6470   0.6089
     2.0676   2.9643

          k = 0.2083 0.3608 0.0000 ( 20119 PWs)   bands (ev):

   -23.5587 -23.5327 -23.4924 -23.4112 -23.3660 -23.3139 -23.2848 -23.2730
   -23.1769 -23.0918 -10.3178  -7.4625  -4.1079  -3.2417  -0.9145   0.9267
     1.5385   2.4131

          k = 0.2083 0.4090 0.0000 ( 20133 PWs)   bands (ev):

   -23.5625 -23.5302 -23.4980 -23.4059 -23.3592 -23.3151 -23.2896 -23.2696
   -23.1859 -23.0845 -10.1115  -7.7798  -4.3018  -3.0716  -1.1341   1.0834
     1.8554   2.2413

          k = 0.2083 0.4571 0.0000 ( 20137 PWs)   bands (ev):

   -23.5656 -23.5273 -23.5032 -23.4003 -23.3561 -23.3149 -23.2941 -23.2643
   -23.1950 -23.0787  -9.8947  -8.0843  -4.4505  -2.8892  -1.3593   1.1295
     2.0673   2.2802

          k = 0.2083 0.5052 0.0000 ( 20163 PWs)   bands (ev):

   -23.5677 -23.5244 -23.5076 -23.3953 -23.3565 -23.3122 -23.2986 -23.2586
   -23.2033 -23.0747  -9.6869  -8.3530  -4.5508  -2.7142  -1.5656   1.1449
     1.9602   2.6506

          k = 0.2083 0.5533 0.0000 ( 20157 PWs)   bands (ev):

   -23.5688 -23.5223 -23.5105 -23.3920 -23.3581 -23.3079 -23.3032 -23.2545
   -23.2086 -23.0727  -9.5386  -8.5324  -4.6012  -2.5910  -1.7051   1.1508
     1.9008   2.9392

          k = 0.2500 0.4330 0.0000 ( 20149 PWs)   bands (ev):

   -23.5665 -23.5272 -23.5029 -23.4004 -23.3500 -23.3194 -23.2941 -23.2646
   -23.1969 -23.0775  -9.8993  -8.0680  -4.4943  -2.8880  -1.3432   1.4487
     2.0235   2.0853

          k = 0.2500 0.4811 0.0000 ( 20153 PWs)   bands (ev):

   -23.5695 -23.5243 -23.5073 -23.3950 -23.3447 -23.3206 -23.2990 -23.2587
   -23.2075 -23.0722  -9.6795  -8.3440  -4.6358  -2.6965  -1.5558   1.6086
     1.9394   2.3927

          k = 0.2500 0.5292 0.0000 ( 20133 PWs)   bands (ev):

   -23.5714 -23.5216 -23.5108 -23.3909 -23.3444 -23.3166 -23.3044 -23.2530
   -23.2163 -23.0690  -9.4784  -8.5797  -4.7220  -2.5225  -1.7436   1.6748
     1.8259   2.7962

          k = 0.2500 0.5774 0.0000 ( 20123 PWs)   bands (ev):

   -23.5720 -23.5202 -23.5125 -23.3892 -23.3451 -23.3106 -23.3102 -23.2502
   -23.2202 -23.0679  -9.3800  -8.6898  -4.7509  -2.4387  -1.8322   1.7209
     1.7582   3.0103

          k = 0.2917 0.5052 0.0000 ( 20137 PWs)   bands (ev):

   -23.5723 -23.5214 -23.5109 -23.3905 -23.3351 -23.3241 -23.3048 -23.2524
   -23.2192 -23.0677  -9.4569  -8.5962  -4.7636  -2.4982  -1.7572   1.7258
     2.1247   2.5583

          k = 0.2917 0.5533 0.0000 ( 20132 PWs)   bands (ev):

   -23.5737 -23.5190 -23.5137 -23.3877 -23.3324 -23.3197 -23.3118 -23.2464
   -23.2282 -23.0654  -9.2600  -8.8077  -4.8287  -2.3253  -1.9318   1.6825
     2.2608   2.8540

          k = 0.3333 0.5774 0.0000 ( 20133 PWs)   bands (ev):

   -23.5745 -23.5164 -23.5164 -23.3866 -23.3227 -23.3205 -23.3203 -23.2382
   -23.2382 -23.0642  -9.0354  -9.0353  -4.8650  -2.1270  -2.1269   1.6494
     2.6901   2.6901

     the Fermi energy is    -2.2038 ev

!    total energy              =    -326.41865478 Ry
     estimated scf accuracy    <       0.00000084 Ry
     smearing contrib. (-TS)   =       0.00015038 Ry
     internal energy E=F+TS    =    -326.41880517 Ry

     The total energy is F=E-TS. E is the sum of the following terms:
     one-electron contribution =    -856.46725641 Ry
     hartree contribution      =     435.93553789 Ry
     xc contribution           =     -95.00855196 Ry
     ewald contribution        =     189.12146532 Ry

     convergence has been achieved in   7 iterations

     Writing output data file ../tmp/stanene.save/

     init_run     :      4.98s CPU      5.27s WALL (       1 calls)
     electrons    :    114.14s CPU    119.05s WALL (       1 calls)

     Called by init_run:
     wfcinit      :      3.86s CPU      4.05s WALL (       1 calls)
     potinit      :      0.34s CPU      0.36s WALL (       1 calls)
     hinit0       :      0.39s CPU      0.40s WALL (       1 calls)

     Called by electrons:
     c_bands      :     97.16s CPU     99.97s WALL (       7 calls)
     sum_band     :     13.07s CPU     14.32s WALL (       7 calls)
     v_of_rho     :      1.52s CPU      1.63s WALL (       8 calls)
     newd         :      2.30s CPU      3.09s WALL (       8 calls)
     mix_rho      :      0.23s CPU      0.23s WALL (       7 calls)

     Called by c_bands:
     init_us_2    :      0.82s CPU      0.83s WALL (     915 calls)
     cegterg      :     93.85s CPU     96.63s WALL (     427 calls)

     Called by *egterg:
     cdiaghg      :      1.48s CPU      1.49s WALL (    2304 calls)
     h_psi        :     58.68s CPU     61.51s WALL (    2365 calls)
     s_psi        :      4.61s CPU      4.63s WALL (    2365 calls)
     g_psi        :      0.42s CPU      0.42s WALL (    1877 calls)

     Called by h_psi:
     h_psi:calbec :      7.41s CPU      7.70s WALL (    2365 calls)
     vloc_psi     :     46.42s CPU     48.83s WALL (    2365 calls)
     add_vuspsi   :      4.61s CPU      4.74s WALL (    2365 calls)

     General routines
     calbec       :      9.66s CPU     10.03s WALL (    2792 calls)
     fft          :      1.53s CPU      1.59s WALL (     102 calls)
     ffts         :      0.03s CPU      0.03s WALL (      15 calls)
     fftw         :     48.58s CPU     50.99s WALL (   54374 calls)
     interpolate  :      0.19s CPU      0.20s WALL (       8 calls)

     Parallel routines
     fft_scatt_xy :      4.60s CPU      4.92s WALL (   54491 calls)
     fft_scatt_yz :     24.93s CPU     25.90s WALL (   54491 calls)

     PWSCF        :   1m59.35s CPU   2m 4.83s WALL


   This run was terminated on:  23:24:26  23Jan2024            

=------------------------------------------------------------------------------=
   JOB DONE.
=------------------------------------------------------------------------------=
