
     Program PWSCF v.6.7MaX starts on 23Jan2024 at 23:35:33 

     This program is part of the open-source Quantum ESPRESSO suite
     for quantum simulation of materials; please cite
         "P. Giannozzi et al., J. Phys.:Condens. Matter 21 395502 (2009);
         "P. Giannozzi et al., J. Phys.:Condens. Matter 29 465901 (2017);
          URL http://www.quantum-espresso.org", 
     in publications or presentations arising from this work. More details at
     http://www.quantum-espresso.org/quote

     Parallel version (MPI), running on     6 processors

     MPI processes distributed on     1 nodes
     R & G space division:  proc/nbgrp/npool/nimage =       6
     Waiting for input...
     Reading input from standard input

     Current dimensions of program PWSCF are:
     Max number of different atomic species (ntypx) = 10
     Max number of k-points (npk) =  40000
     Max angular momentum in pseudopotentials (lmaxx) =  3

     Subspace diagonalization in iterative solution of the eigenvalue problem:
     one sub-group per band group will be used
     scalapack distributed-memory algorithm (size of sub-group:  2*  2 procs)


     Parallelization info
     --------------------
     sticks:   dense  smooth     PW     G-vecs:    dense   smooth      PW
     Min         431     214     61                75909    26818    4015
     Max         432     215     62                75924    26841    4025
     Sum        2587    1285    367               455489   160939   24117



     bravais-lattice index     =            4
     lattice parameter (alat)  =       8.8506  a.u.
     unit-cell volume          =    2563.9136 (a.u.)^3
     number of atoms/cell      =            2
     number of atomic types    =            1
     number of electrons       =        28.00
     number of Kohn-Sham states=           18
     kinetic-energy cutoff     =      60.0000  Ry
     charge density cutoff     =     480.0000  Ry
     scf convergence threshold =      1.0E-06
     mixing beta               =       0.7000
     number of iterations used =            8  plain     mixing
     Exchange-correlation= SLA  PW   PBE  PBE
                           (   1   4   3   4   0   0   0)

     celldm(1)=   8.850584  celldm(2)=   0.000000  celldm(3)=   4.270286
     celldm(4)=   0.000000  celldm(5)=   0.000000  celldm(6)=   0.000000

     crystal axes: (cart. coord. in units of alat)
               a(1) = (   1.000000   0.000000   0.000000 )  
               a(2) = (  -0.500000   0.866025   0.000000 )  
               a(3) = (   0.000000   0.000000   4.270286 )  

     reciprocal axes: (cart. coord. in units 2 pi/alat)
               b(1) = (  1.000000  0.577350 -0.000000 )  
               b(2) = (  0.000000  1.154701  0.000000 )  
               b(3) = (  0.000000 -0.000000  0.234176 )  


     PseudoPot. # 1 for Sn read from file:
     ../pseudo/Sn_pbe_v1.uspp.F.UPF
     MD5 check sum: 4cf58ce39ec5d5d420df3dd08604eb00
     Pseudo is Ultrasoft + core correction, Zval = 14.0
     Generated by new atomic code, or converted to UPF format
     Using radial grid of  891 points,  6 beta functions with: 
                l(1) =   0
                l(2) =   0
                l(3) =   1
                l(4) =   1
                l(5) =   2
                l(6) =   2
     Q(r) pseudized with  6 coefficients,  rinner =    1.200   1.200   1.200
                                                       1.200   1.200

     atomic species   valence    mass     pseudopotential
        Sn            14.00   118.71000     Sn( 1.00)

      6 Sym. Ops. (no inversion) found



   Cartesian axes

     site n.     atom                  positions (alat units)
         1           Sn  tau(   1) = (   0.0000000   0.5773503   2.1351428  )
         2           Sn  tau(   2) = (   0.5000000   0.2886751   1.9552503  )

     number of k points=    61  Marzari-Vanderbilt smearing, width (Ry)=  0.0400
                       cart. coord. in units 2pi/alat
        k(    1) = (   0.0000000   0.0000000   0.0000000), wk =   0.0034722
        k(    2) = (   0.0000000   0.0481125   0.0000000), wk =   0.0208333
        k(    3) = (   0.0000000   0.0962250   0.0000000), wk =   0.0208333
        k(    4) = (   0.0000000   0.1443376   0.0000000), wk =   0.0208333
        k(    5) = (   0.0000000   0.1924501   0.0000000), wk =   0.0208333
        k(    6) = (   0.0000000   0.2405626   0.0000000), wk =   0.0208333
        k(    7) = (   0.0000000   0.2886751   0.0000000), wk =   0.0208333
        k(    8) = (   0.0000000   0.3367877   0.0000000), wk =   0.0208333
        k(    9) = (   0.0000000   0.3849002   0.0000000), wk =   0.0208333
        k(   10) = (   0.0000000   0.4330127   0.0000000), wk =   0.0208333
        k(   11) = (   0.0000000   0.4811252   0.0000000), wk =   0.0208333
        k(   12) = (   0.0000000   0.5292377   0.0000000), wk =   0.0208333
        k(   13) = (   0.0000000  -0.5773503   0.0000000), wk =   0.0104167
        k(   14) = (   0.0416667   0.0721688   0.0000000), wk =   0.0208333
        k(   15) = (   0.0416667   0.1202813   0.0000000), wk =   0.0416667
        k(   16) = (   0.0416667   0.1683938   0.0000000), wk =   0.0416667
        k(   17) = (   0.0416667   0.2165064   0.0000000), wk =   0.0416667
        k(   18) = (   0.0416667   0.2646189   0.0000000), wk =   0.0416667
        k(   19) = (   0.0416667   0.3127314   0.0000000), wk =   0.0416667
        k(   20) = (   0.0416667   0.3608439   0.0000000), wk =   0.0416667
        k(   21) = (   0.0416667   0.4089564   0.0000000), wk =   0.0416667
        k(   22) = (   0.0416667   0.4570690   0.0000000), wk =   0.0416667
        k(   23) = (   0.0416667   0.5051815   0.0000000), wk =   0.0416667
        k(   24) = (   0.0416667   0.5532940   0.0000000), wk =   0.0416667
        k(   25) = (   0.0833333   0.1443376   0.0000000), wk =   0.0208333
        k(   26) = (   0.0833333   0.1924501   0.0000000), wk =   0.0416667
        k(   27) = (   0.0833333   0.2405626   0.0000000), wk =   0.0416667
        k(   28) = (   0.0833333   0.2886751   0.0000000), wk =   0.0416667
        k(   29) = (   0.0833333   0.3367877   0.0000000), wk =   0.0416667
        k(   30) = (   0.0833333   0.3849002   0.0000000), wk =   0.0416667
        k(   31) = (   0.0833333   0.4330127   0.0000000), wk =   0.0416667
        k(   32) = (   0.0833333   0.4811252   0.0000000), wk =   0.0416667
        k(   33) = (   0.0833333   0.5292377   0.0000000), wk =   0.0416667
        k(   34) = (   0.0833333   0.5773503   0.0000000), wk =   0.0208333
        k(   35) = (   0.1250000   0.2165064   0.0000000), wk =   0.0208333
        k(   36) = (   0.1250000   0.2646189   0.0000000), wk =   0.0416667
        k(   37) = (   0.1250000   0.3127314   0.0000000), wk =   0.0416667
        k(   38) = (   0.1250000   0.3608439   0.0000000), wk =   0.0416667
        k(   39) = (   0.1250000   0.4089564   0.0000000), wk =   0.0416667
        k(   40) = (   0.1250000   0.4570690   0.0000000), wk =   0.0416667
        k(   41) = (   0.1250000   0.5051815   0.0000000), wk =   0.0416667
        k(   42) = (   0.1250000   0.5532940   0.0000000), wk =   0.0416667
        k(   43) = (   0.1666667   0.2886751   0.0000000), wk =   0.0208333
        k(   44) = (   0.1666667   0.3367877   0.0000000), wk =   0.0416667
        k(   45) = (   0.1666667   0.3849002   0.0000000), wk =   0.0416667
        k(   46) = (   0.1666667   0.4330127   0.0000000), wk =   0.0416667
        k(   47) = (   0.1666667   0.4811252   0.0000000), wk =   0.0416667
        k(   48) = (   0.1666667   0.5292377   0.0000000), wk =   0.0416667
        k(   49) = (   0.1666667   0.5773503   0.0000000), wk =   0.0208333
        k(   50) = (   0.2083333   0.3608439   0.0000000), wk =   0.0208333
        k(   51) = (   0.2083333   0.4089564   0.0000000), wk =   0.0416667
        k(   52) = (   0.2083333   0.4570690   0.0000000), wk =   0.0416667
        k(   53) = (   0.2083333   0.5051815   0.0000000), wk =   0.0416667
        k(   54) = (   0.2083333   0.5532940   0.0000000), wk =   0.0416667
        k(   55) = (   0.2500000   0.4330127   0.0000000), wk =   0.0208333
        k(   56) = (   0.2500000   0.4811252   0.0000000), wk =   0.0416667
        k(   57) = (   0.2500000   0.5292377   0.0000000), wk =   0.0416667
        k(   58) = (   0.2500000   0.5773503   0.0000000), wk =   0.0208333
        k(   59) = (   0.2916667   0.5051815   0.0000000), wk =   0.0208333
        k(   60) = (   0.2916667   0.5532940   0.0000000), wk =   0.0416667
        k(   61) = (   0.3333333   0.5773503   0.0000000), wk =   0.0069444

     Dense  grid:   455489 G-vectors     FFT dimensions: (  64,  64, 270)

     Smooth grid:   160939 G-vectors     FFT dimensions: (  45,  45, 192)

     Estimated max dynamical RAM per process >     322.30 MB

     Estimated total dynamical RAM >       1.89 GB

     Initial potential from superposition of free atoms

     starting charge   25.99991, renormalised to   28.00000

     negative rho (up, down):  5.949E-04 0.000E+00
     Starting wfcs are   18 randomized atomic wfcs

     total cpu time spent up to now is        6.0 secs

     Self-consistent Calculation

     iteration #  1     ecut=    60.00 Ry     beta= 0.70
     Davidson diagonalization with overlap
     ethr =  1.00E-02,  avg # of iterations =  8.8

     negative rho (up, down):  1.437E-06 0.000E+00

     total cpu time spent up to now is       28.0 secs

     total energy              =    -325.44792930 Ry
     estimated scf accuracy    <       2.48022728 Ry

     iteration #  2     ecut=    60.00 Ry     beta= 0.70
     Davidson diagonalization with overlap
     ethr =  8.86E-03,  avg # of iterations =  2.1

     negative rho (up, down):  1.058E-05 0.000E+00

     total cpu time spent up to now is       45.3 secs

     total energy              =    -326.35397899 Ry
     estimated scf accuracy    <       0.39403510 Ry

     iteration #  3     ecut=    60.00 Ry     beta= 0.70
     Davidson diagonalization with overlap
     ethr =  1.41E-03,  avg # of iterations =  2.1

     negative rho (up, down):  4.065E-05 0.000E+00

     total cpu time spent up to now is       62.3 secs

     total energy              =    -326.41337200 Ry
     estimated scf accuracy    <       0.00639806 Ry

     iteration #  4     ecut=    60.00 Ry     beta= 0.70
     Davidson diagonalization with overlap
     c_bands:  1 eigenvalues not converged
     ethr =  2.29E-05,  avg # of iterations =  8.5

     negative rho (up, down):  7.744E-05 0.000E+00

     total cpu time spent up to now is       82.7 secs

     total energy              =    -326.41541137 Ry
     estimated scf accuracy    <       0.00031733 Ry

     iteration #  5     ecut=    60.00 Ry     beta= 0.70
     Davidson diagonalization with overlap
     c_bands:  1 eigenvalues not converged
     ethr =  1.13E-06,  avg # of iterations =  6.2

     negative rho (up, down):  8.101E-05 0.000E+00

     total cpu time spent up to now is      102.2 secs

     total energy              =    -326.41544946 Ry
     estimated scf accuracy    <       0.00002531 Ry

     iteration #  6     ecut=    60.00 Ry     beta= 0.70
     Davidson diagonalization with overlap
     ethr =  9.04E-08,  avg # of iterations =  2.4

     negative rho (up, down):  8.454E-05 0.000E+00

     total cpu time spent up to now is      116.3 secs

     total energy              =    -326.41545605 Ry
     estimated scf accuracy    <       0.00001716 Ry

     iteration #  7     ecut=    60.00 Ry     beta= 0.70
     Davidson diagonalization with overlap
     ethr =  6.13E-08,  avg # of iterations =  2.0

     negative rho (up, down):  8.547E-05 0.000E+00

     total cpu time spent up to now is      129.2 secs

     End of self-consistent calculation

          k = 0.0000 0.0000 0.0000 ( 20025 PWs)   bands (ev):

   -23.5291 -23.5291 -23.4508 -23.4508 -23.4364 -23.3665 -23.2240 -23.2240
   -23.1680 -23.1680 -11.3723  -5.2765  -2.4024  -2.4024  -1.9426  -0.0663
     1.0939   1.0939

          k = 0.0000 0.0481 0.0000 ( 20035 PWs)   bands (ev):

   -23.5300 -23.5298 -23.4525 -23.4496 -23.4339 -23.3652 -23.2265 -23.2263
   -23.1667 -23.1657 -11.3576  -5.2996  -2.6916  -2.4349  -1.6351  -0.0652
     1.0638   1.1497

          k = 0.0000 0.0962 0.0000 ( 20005 PWs)   bands (ev):

   -23.5324 -23.5319 -23.4564 -23.4462 -23.4285 -23.3615 -23.2330 -23.2325
   -23.1635 -23.1599 -11.3136  -5.3771  -3.0783  -2.5254  -1.1993  -0.0651
     1.0081   1.3090

          k = 0.0000 0.1443 0.0000 ( 20065 PWs)   bands (ev):

   -23.5357 -23.5349 -23.4612 -23.4413 -23.4220 -23.3553 -23.2416 -23.2409
   -23.1597 -23.1523 -11.2405  -5.5297  -3.3884  -2.6570  -0.8353  -0.0750
     1.0119   1.5518

          k = 0.0000 0.1925 0.0000 ( 20113 PWs)   bands (ev):

   -23.5390 -23.5382 -23.4666 -23.4353 -23.4156 -23.3470 -23.2510 -23.2502
   -23.1565 -23.1441 -11.1388  -5.7733  -3.5839  -2.8110  -0.6345  -0.0981
     1.1561   2.1774

          k = 0.0000 0.2406 0.0000 ( 20071 PWs)   bands (ev):

   -23.5416 -23.5415 -23.4725 -23.4290 -23.4103 -23.3367 -23.2605 -23.2595
   -23.1543 -23.1361 -11.0094  -6.0990  -3.6648  -2.9714  -0.6219  -0.1270
     1.4147   2.2882

          k = 0.0000 0.2887 0.0000 ( 20087 PWs)   bands (ev):

   -23.5445 -23.5433 -23.4787 -23.4228 -23.4064 -23.3252 -23.2695 -23.2679
   -23.1535 -23.1287 -10.8538  -6.4772  -3.6556  -3.1263  -0.7273  -0.1749
     1.6507   2.4632

          k = 0.0000 0.3368 0.0000 ( 20109 PWs)   bands (ev):

   -23.5471 -23.5438 -23.4853 -23.4170 -23.4041 -23.3134 -23.2777 -23.2745
   -23.1541 -23.1221 -10.6743  -6.8768  -3.5846  -3.2674  -0.8814  -0.2550
     1.8048   2.6656

          k = 0.0000 0.3849 0.0000 ( 20145 PWs)   bands (ev):

   -23.5492 -23.5430 -23.4919 -23.4120 -23.4030 -23.3031 -23.2848 -23.2783
   -23.1559 -23.1164 -10.4753  -7.2736  -3.4749  -3.3888  -1.0520  -0.3591
     1.9364   2.8807

          k = 0.0000 0.4330 0.0000 ( 20161 PWs)   bands (ev):

   -23.5507 -23.5410 -23.4985 -23.4079 -23.4029 -23.2973 -23.2905 -23.2769
   -23.1586 -23.1119 -10.2649  -7.6468  -3.4867  -3.3462  -1.2232  -0.4663
     2.0847   3.0992

          k = 0.0000 0.4811 0.0000 ( 20157 PWs)   bands (ev):

   -23.5518 -23.5383 -23.5046 -23.4050 -23.4033 -23.2964 -23.2946 -23.2712
   -23.1616 -23.1086 -10.0597  -7.9724  -3.5583  -3.2199  -1.3785  -0.5561
     2.2493   3.2783

          k = 0.0000 0.5292 0.0000 ( 20142 PWs)   bands (ev):

   -23.5524 -23.5355 -23.5094 -23.4037 -23.4032 -23.2972 -23.2968 -23.2660
   -23.1639 -23.1066  -9.8945  -8.2114  -3.6018  -3.1233  -1.4929  -0.6143
     2.3993   3.3355

          k = 0.0000-0.5774 0.0000 ( 20152 PWs)   bands (ev):

   -23.5526 -23.5342 -23.5113 -23.4039 -23.4026 -23.2980 -23.2971 -23.2641
   -23.1649 -23.1059  -9.8270  -8.3036  -3.6165  -3.0862  -1.5360  -0.6343
     2.4666   3.3877

          k = 0.0417 0.0722 0.0000 ( 20017 PWs)   bands (ev):

   -23.5316 -23.5313 -23.4552 -23.4475 -23.4300 -23.3627 -23.2311 -23.2304
   -23.1646 -23.1616 -11.3282  -5.3499  -2.9777  -2.5006  -1.3094  -0.0646
     1.0113   1.2658

          k = 0.0417 0.1203 0.0000 ( 20039 PWs)   bands (ev):

   -23.5343 -23.5339 -23.4592 -23.4436 -23.4240 -23.3578 -23.2386 -23.2374
   -23.1615 -23.1547 -11.2697  -5.4653  -3.2854  -2.6217  -0.9279  -0.0705
     0.9574   1.4874

          k = 0.0417 0.1684 0.0000 ( 20081 PWs)   bands (ev):

   -23.5377 -23.5369 -23.4641 -23.4386 -23.4172 -23.3507 -23.2476 -23.2461
   -23.1585 -23.1466 -11.1822  -5.6650  -3.5138  -2.7756  -0.6323  -0.0916
     0.9954   1.7820

          k = 0.0417 0.2165 0.0000 ( 20075 PWs)   bands (ev):

   -23.5413 -23.5396 -23.4697 -23.4328 -23.4109 -23.3415 -23.2569 -23.2553
   -23.1562 -23.1383 -11.0667  -5.9521  -3.6355  -2.9425  -0.5191  -0.1171
     1.1850   2.0968

          k = 0.0417 0.2646 0.0000 ( 20107 PWs)   bands (ev):

   -23.5446 -23.5416 -23.4758 -23.4268 -23.4058 -23.3309 -23.2659 -23.2642
   -23.1552 -23.1304 -10.9240  -6.3052  -3.6616  -3.1069  -0.5831  -0.1388
     1.4628   2.2921

          k = 0.0417 0.3127 0.0000 ( 20105 PWs)   bands (ev):

   -23.5475 -23.5426 -23.4823 -23.4210 -23.4021 -23.3194 -23.2743 -23.2717
   -23.1556 -23.1232 -10.7562  -6.6938  -3.6197  -3.2559  -0.7331  -0.1850
     1.6996   2.4968

          k = 0.0417 0.3608 0.0000 ( 20127 PWs)   bands (ev):

   -23.5499 -23.5424 -23.4889 -23.4159 -23.4000 -23.3085 -23.2817 -23.2770
   -23.1572 -23.1168 -10.5662  -7.0911  -3.5500  -3.3659  -0.9142  -0.2611
     1.8651   2.7206

          k = 0.0417 0.4090 0.0000 ( 20135 PWs)   bands (ev):

   -23.5517 -23.5410 -23.4955 -23.4114 -23.3991 -23.3005 -23.2879 -23.2781
   -23.1600 -23.1116 -10.3600  -7.4758  -3.5606  -3.3438  -1.1041  -0.3517
     2.0144   2.9053

          k = 0.0417 0.4571 0.0000 ( 20146 PWs)   bands (ev):

   -23.5530 -23.5386 -23.5019 -23.4078 -23.3992 -23.2977 -23.2927 -23.2740
   -23.1632 -23.1075 -10.1490  -7.8269  -3.6303  -3.2267  -1.2865  -0.4369
     2.1735   3.0321

          k = 0.0417 0.5052 0.0000 ( 20148 PWs)   bands (ev):

   -23.5538 -23.5358 -23.5074 -23.4050 -23.4000 -23.2979 -23.2959 -23.2681
   -23.1663 -23.1048  -9.9573  -8.1147  -3.6851  -3.1111  -1.4391  -0.5011
     2.3291   3.1192

          k = 0.0417 0.5533 0.0000 ( 20150 PWs)   bands (ev):

   -23.5543 -23.5336 -23.5109 -23.4029 -23.4012 -23.2984 -23.2973 -23.2643
   -23.1681 -23.1034  -9.8324  -8.2884  -3.7136  -3.0385  -1.5297  -0.5350
     2.4348   3.2182

          k = 0.0833 0.1443 0.0000 ( 20061 PWs)   bands (ev):

   -23.5372 -23.5366 -23.4631 -23.4402 -23.4175 -23.3520 -23.2465 -23.2445
   -23.1596 -23.1471 -11.1968  -5.6290  -3.4785  -2.7797  -0.6047  -0.0921
     0.8992   1.7840

          k = 0.0833 0.1925 0.0000 ( 20087 PWs)   bands (ev):

   -23.5410 -23.5387 -23.4680 -23.4358 -23.4102 -23.3444 -23.2552 -23.2528
   -23.1584 -23.1386 -11.0954  -5.8756  -3.6009  -2.9666  -0.3491  -0.1335
     0.9346   2.1269

          k = 0.0833 0.2406 0.0000 ( 20121 PWs)   bands (ev):

   -23.5449 -23.5403 -23.4737 -23.4307 -23.4034 -23.3352 -23.2638 -23.2613
   -23.1581 -23.1301 -10.9663  -6.1933  -3.6425  -3.1561  -0.3482  -0.0973
     1.1302   2.2434

          k = 0.0833 0.2887 0.0000 ( 20106 PWs)   bands (ev):

   -23.5486 -23.5411 -23.4799 -23.4254 -23.3978 -23.3251 -23.2719 -23.2692
   -23.1590 -23.1221 -10.8110  -6.5572  -3.6229  -3.3256  -0.5109  -0.0593
     1.4318   2.3295

          k = 0.0833 0.3368 0.0000 ( 20114 PWs)   bands (ev):

   -23.5517 -23.5410 -23.4865 -23.4201 -23.3939 -23.3148 -23.2793 -23.2753
   -23.1612 -23.1148 -10.6318  -6.9417  -3.6092  -3.4168  -0.7161  -0.0744
     1.7205   2.4803

          k = 0.0833 0.3849 0.0000 ( 20126 PWs)   bands (ev):

   -23.5542 -23.5398 -23.4931 -23.4152 -23.3918 -23.3063 -23.2857 -23.2780
   -23.1646 -23.1085 -10.4328  -7.3253  -3.6948  -3.3476  -0.9371  -0.1201
     1.9395   2.6381

          k = 0.0833 0.4330 0.0000 ( 20149 PWs)   bands (ev):

   -23.5561 -23.5378 -23.4995 -23.4107 -23.3914 -23.3018 -23.2909 -23.2758
   -23.1687 -23.1035 -10.2217  -7.6889  -3.7945  -3.2160  -1.1573  -0.1762
     2.1158   2.7371

          k = 0.0833 0.4811 0.0000 ( 20151 PWs)   bands (ev):

   -23.5574 -23.5351 -23.5054 -23.4066 -23.3925 -23.3006 -23.2948 -23.2702
   -23.1728 -23.0998 -10.0149  -8.0089  -3.8714  -3.0769  -1.3566  -0.2268
     2.2622   2.8233

          k = 0.0833 0.5292 0.0000 ( 20157 PWs)   bands (ev):

   -23.5581 -23.5325 -23.5100 -23.4031 -23.3944 -23.3003 -23.2975 -23.2651
   -23.1760 -23.0975  -9.8467  -8.2466  -3.9188  -2.9652  -1.5042  -0.2611
     2.3555   2.9566

          k = 0.0833 0.5774 0.0000 ( 20154 PWs)   bands (ev):

   -23.5584 -23.5312 -23.5119 -23.4013 -23.3957 -23.2999 -23.2988 -23.2632
   -23.1772 -23.0967  -9.7774  -8.3393  -3.9348  -2.9208  -1.5607  -0.2732
     2.3847   3.0782

          k = 0.1250 0.2165 0.0000 ( 20099 PWs)   bands (ev):

   -23.5450 -23.5399 -23.4728 -23.4322 -23.4023 -23.3369 -23.2631 -23.2603
   -23.1593 -23.1299 -10.9805  -6.1543  -3.6278  -3.1886  -0.2321  -0.0487
     0.9360   2.2524

          k = 0.1250 0.2646 0.0000 ( 20119 PWs)   bands (ev):

   -23.5492 -23.5404 -23.4786 -23.4279 -23.3947 -23.3286 -23.2708 -23.2677
   -23.1614 -23.1211 -10.8386  -6.4833  -3.6007  -3.4047  -0.3759   0.1460
     1.0947   2.3045

          k = 0.1250 0.3127 0.0000 ( 20122 PWs)   bands (ev):

   -23.5531 -23.5401 -23.4849 -23.4231 -23.3883 -23.3202 -23.2778 -23.2739
   -23.1648 -23.1128 -10.6714  -6.8418  -3.6436  -3.4829  -0.5702   0.2180
     1.4041   2.3732

          k = 0.1250 0.3608 0.0000 ( 20112 PWs)   bands (ev):

   -23.5565 -23.5389 -23.4913 -23.4180 -23.3839 -23.3128 -23.2841 -23.2774
   -23.1692 -23.1054 -10.4819  -7.2105  -3.8104  -3.3716  -0.7952   0.2217
     1.7495   2.4398

          k = 0.1250 0.4090 0.0000 ( 20146 PWs)   bands (ev):

   -23.5592 -23.5370 -23.4977 -23.4129 -23.3819 -23.3079 -23.2895 -23.2765
   -23.1746 -23.0992 -10.2753  -7.5721  -3.9544  -3.2248  -1.0322   0.1981
     2.0392   2.4640

          k = 0.1250 0.4571 0.0000 ( 20145 PWs)   bands (ev):

   -23.5612 -23.5344 -23.5036 -23.4079 -23.3821 -23.3056 -23.2940 -23.2719
   -23.1802 -23.0943 -10.0621  -7.9077  -4.0646  -3.0658  -1.2620   0.1670
     2.2164   2.5241

          k = 0.1250 0.5052 0.0000 ( 20141 PWs)   bands (ev):

   -23.5625 -23.5316 -23.5087 -23.4034 -23.3839 -23.3043 -23.2976 -23.2662
   -23.1852 -23.0910  -9.8655  -8.1887  -4.1389  -2.9187  -1.4579   0.1402
     2.2533   2.7122

          k = 0.1250 0.5533 0.0000 ( 20145 PWs)   bands (ev):

   -23.5632 -23.5295 -23.5121 -23.4002 -23.3860 -23.3028 -23.3004 -23.2625
   -23.1883 -23.0893  -9.7343  -8.3628  -4.1762  -2.8231  -1.5784   0.1251
     2.2487   2.9293

          k = 0.1667 0.2887 0.0000 ( 20113 PWs)   bands (ev):

   -23.5536 -23.5398 -23.4843 -23.4241 -23.3860 -23.3224 -23.2773 -23.2734
   -23.1661 -23.1120 -10.6847  -6.8064  -3.6544  -3.5117  -0.5232   0.4357
     1.1621   2.3770

          k = 0.1667 0.3368 0.0000 ( 20110 PWs)   bands (ev):

   -23.5577 -23.5385 -23.4904 -23.4194 -23.3785 -23.3175 -23.2833 -23.2769
   -23.1720 -23.1036 -10.5066  -7.1475  -3.8776  -3.3893  -0.7210   0.5934
     1.4163   2.4428

          k = 0.1667 0.3849 0.0000 ( 20115 PWs)   bands (ev):

   -23.5613 -23.5365 -23.4965 -23.4143 -23.3732 -23.3143 -23.2887 -23.2767
   -23.1788 -23.0961 -10.3080  -7.4925  -4.0674  -3.2381  -0.9468   0.6342
     1.7904   2.3686

          k = 0.1667 0.4330 0.0000 ( 20139 PWs)   bands (ev):

   -23.5642 -23.5340 -23.5024 -23.4089 -23.3709 -23.3125 -23.2934 -23.2729
   -23.1861 -23.0900 -10.0955  -7.8267  -4.2177  -3.0690  -1.1819   0.6337
     2.1576   2.2586

          k = 0.1667 0.4811 0.0000 ( 20145 PWs)   bands (ev):

   -23.5664 -23.5311 -23.5076 -23.4036 -23.3715 -23.3106 -23.2976 -23.2673
   -23.1932 -23.0855  -9.8834  -8.1298  -4.3260  -2.8980  -1.4041   0.6227
     2.1482   2.5036

          k = 0.1667 0.5292 0.0000 ( 20147 PWs)   bands (ev):

   -23.5677 -23.5285 -23.5117 -23.3994 -23.3735 -23.3080 -23.3014 -23.2623
   -23.1987 -23.0827  -9.7051  -8.3643  -4.3912  -2.7558  -1.5787   0.6127
     2.0866   2.7968

          k = 0.1667 0.5774 0.0000 ( 20135 PWs)   bands (ev):

   -23.5681 -23.5272 -23.5135 -23.3976 -23.3747 -23.3055 -23.3043 -23.2602
   -23.2009 -23.0818  -9.6286  -8.4597  -4.4130  -2.6962  -1.6494   0.6088
     2.0655   2.9631

          k = 0.2083 0.3608 0.0000 ( 20119 PWs)   bands (ev):

   -23.5620 -23.5363 -23.4961 -23.4148 -23.3694 -23.3173 -23.2884 -23.2767
   -23.1803 -23.0951 -10.3190  -7.4641  -4.1082  -3.2437  -0.9169   0.9265
     1.5373   2.4112

          k = 0.2083 0.4090 0.0000 ( 20133 PWs)   bands (ev):

   -23.5659 -23.5338 -23.5017 -23.4094 -23.3626 -23.3184 -23.2931 -23.2734
   -23.1893 -23.0878 -10.1127  -7.7813  -4.3019  -3.0738  -1.1365   1.0831
     1.8541   2.2393

          k = 0.2083 0.4571 0.0000 ( 20137 PWs)   bands (ev):

   -23.5689 -23.5309 -23.5069 -23.4039 -23.3595 -23.3183 -23.2976 -23.2681
   -23.1985 -23.0820  -9.8960  -8.0859  -4.4507  -2.8914  -1.3617   1.1292
     2.0653   2.2788

          k = 0.2083 0.5052 0.0000 ( 20163 PWs)   bands (ev):

   -23.5710 -23.5281 -23.5113 -23.3989 -23.3599 -23.3156 -23.3021 -23.2623
   -23.2067 -23.0780  -9.6882  -8.3545  -4.5509  -2.7164  -1.5679   1.1447
     1.9581   2.6492

          k = 0.2083 0.5533 0.0000 ( 20157 PWs)   bands (ev):

   -23.5721 -23.5259 -23.5142 -23.3956 -23.3614 -23.3114 -23.3067 -23.2582
   -23.2121 -23.0759  -9.5399  -8.5338  -4.6013  -2.5933  -1.7075   1.1506
     1.8987   2.9380

          k = 0.2500 0.4330 0.0000 ( 20149 PWs)   bands (ev):

   -23.5698 -23.5309 -23.5066 -23.4039 -23.3534 -23.3228 -23.2977 -23.2684
   -23.2003 -23.0808  -9.9006  -8.0695  -4.4944  -2.8902  -1.3456   1.4484
     2.0224   2.0834

          k = 0.2500 0.4811 0.0000 ( 20153 PWs)   bands (ev):

   -23.5728 -23.5280 -23.5110 -23.3986 -23.3481 -23.3239 -23.3025 -23.2625
   -23.2110 -23.0755  -9.6808  -8.3455  -4.6359  -2.6988  -1.5582   1.6080
     1.9376   2.3916

          k = 0.2500 0.5292 0.0000 ( 20133 PWs)   bands (ev):

   -23.5747 -23.5253 -23.5145 -23.3945 -23.3478 -23.3200 -23.3079 -23.2568
   -23.2199 -23.0723  -9.4797  -8.5812  -4.7221  -2.5248  -1.7460   1.6740
     1.8243   2.7948

          k = 0.2500 0.5774 0.0000 ( 20123 PWs)   bands (ev):

   -23.5753 -23.5239 -23.5162 -23.3928 -23.3484 -23.3141 -23.3137 -23.2540
   -23.2237 -23.0712  -9.3813  -8.6912  -4.7510  -2.4410  -1.8346   1.7206
     1.7560   3.0092

          k = 0.2917 0.5052 0.0000 ( 20137 PWs)   bands (ev):

   -23.5756 -23.5251 -23.5146 -23.3941 -23.3386 -23.3274 -23.3083 -23.2561
   -23.2227 -23.0710  -9.4582  -8.5976  -4.7637  -2.5005  -1.7595   1.7237
     2.1244   2.5573

          k = 0.2917 0.5533 0.0000 ( 20132 PWs)   bands (ev):

   -23.5770 -23.5226 -23.5174 -23.3913 -23.3358 -23.3231 -23.3153 -23.2501
   -23.2318 -23.0687  -9.2614  -8.8091  -4.8288  -2.3276  -1.9342   1.6803
     2.2606   2.8534

          k = 0.3333 0.5774 0.0000 ( 20133 PWs)   bands (ev):

   -23.5778 -23.5201 -23.5201 -23.3902 -23.3262 -23.3238 -23.3236 -23.2419
   -23.2419 -23.0675  -9.0368  -9.0367  -4.8650  -2.1293  -2.1292   1.6472
     2.6897   2.6897

     the Fermi energy is    -2.3157 ev

!    total energy              =    -326.41545844 Ry
     estimated scf accuracy    <       0.00000030 Ry
     smearing contrib. (-TS)   =       0.00861361 Ry
     internal energy E=F+TS    =    -326.42407206 Ry

     The total energy is F=E-TS. E is the sum of the following terms:
     one-electron contribution =    -856.45949069 Ry
     hartree contribution      =     435.92010640 Ry
     xc contribution           =     -95.00615309 Ry
     ewald contribution        =     189.12146532 Ry

     convergence has been achieved in   7 iterations

     Writing output data file ../tmp/stanene.save/

     init_run     :      5.63s CPU      5.86s WALL (       1 calls)
     electrons    :    117.78s CPU    123.22s WALL (       1 calls)

     Called by init_run:
     wfcinit      :      4.37s CPU      4.50s WALL (       1 calls)
     potinit      :      0.44s CPU      0.46s WALL (       1 calls)
     hinit0       :      0.40s CPU      0.40s WALL (       1 calls)

     Called by electrons:
     c_bands      :    100.50s CPU    103.98s WALL (       7 calls)
     sum_band     :     13.44s CPU     14.71s WALL (       7 calls)
     v_of_rho     :      1.27s CPU      1.35s WALL (       8 calls)
     newd         :      2.62s CPU      3.29s WALL (       8 calls)
     mix_rho      :      0.18s CPU      0.18s WALL (       7 calls)

     Called by c_bands:
     init_us_2    :      0.84s CPU      0.84s WALL (     915 calls)
     cegterg      :     97.26s CPU    100.73s WALL (     427 calls)

     Called by *egterg:
     cdiaghg      :      1.52s CPU      1.54s WALL (    2381 calls)
     h_psi        :     60.56s CPU     63.98s WALL (    2442 calls)
     s_psi        :      4.53s CPU      4.57s WALL (    2442 calls)
     g_psi        :      0.40s CPU      0.41s WALL (    1954 calls)

     Called by h_psi:
     h_psi:calbec :      7.57s CPU      7.96s WALL (    2442 calls)
     vloc_psi     :     48.15s CPU     51.07s WALL (    2442 calls)
     add_vuspsi   :      4.59s CPU      4.71s WALL (    2442 calls)

     General routines
     calbec       :      9.87s CPU     10.30s WALL (    2869 calls)
     fft          :      1.30s CPU      1.33s WALL (     102 calls)
     ffts         :      0.04s CPU      0.04s WALL (      15 calls)
     fftw         :     50.48s CPU     53.36s WALL (   54790 calls)
     interpolate  :      0.15s CPU      0.15s WALL (       8 calls)

     Parallel routines
     fft_scatt_xy :      4.68s CPU      5.09s WALL (   54907 calls)
     fft_scatt_yz :     26.53s CPU     27.56s WALL (   54907 calls)

     PWSCF        :   2m 3.59s CPU   2m 9.55s WALL


   This run was terminated on:  23:37:42  23Jan2024            

=------------------------------------------------------------------------------=
   JOB DONE.
=------------------------------------------------------------------------------=
