
     Program PWSCF v.6.7MaX starts on 23Jan2024 at 23:30:56 

     This program is part of the open-source Quantum ESPRESSO suite
     for quantum simulation of materials; please cite
         "P. Giannozzi et al., J. Phys.:Condens. Matter 21 395502 (2009);
         "P. Giannozzi et al., J. Phys.:Condens. Matter 29 465901 (2017);
          URL http://www.quantum-espresso.org", 
     in publications or presentations arising from this work. More details at
     http://www.quantum-espresso.org/quote

     Parallel version (MPI), running on     6 processors

     MPI processes distributed on     1 nodes
     R & G space division:  proc/nbgrp/npool/nimage =       6
     Waiting for input...
     Reading input from standard input

     Current dimensions of program PWSCF are:
     Max number of different atomic species (ntypx) = 10
     Max number of k-points (npk) =  40000
     Max angular momentum in pseudopotentials (lmaxx) =  3

     Subspace diagonalization in iterative solution of the eigenvalue problem:
     one sub-group per band group will be used
     scalapack distributed-memory algorithm (size of sub-group:  2*  2 procs)


     Parallelization info
     --------------------
     sticks:   dense  smooth     PW     G-vecs:    dense   smooth      PW
     Min         431     214     61                75909    26818    4015
     Max         432     215     62                75924    26841    4025
     Sum        2587    1285    367               455489   160939   24117



     bravais-lattice index     =            4
     lattice parameter (alat)  =       8.8506  a.u.
     unit-cell volume          =    2563.9136 (a.u.)^3
     number of atoms/cell      =            2
     number of atomic types    =            1
     number of electrons       =        28.00
     number of Kohn-Sham states=           18
     kinetic-energy cutoff     =      60.0000  Ry
     charge density cutoff     =     480.0000  Ry
     scf convergence threshold =      1.0E-06
     mixing beta               =       0.7000
     number of iterations used =            8  plain     mixing
     Exchange-correlation= SLA  PW   PBE  PBE
                           (   1   4   3   4   0   0   0)

     celldm(1)=   8.850584  celldm(2)=   0.000000  celldm(3)=   4.270286
     celldm(4)=   0.000000  celldm(5)=   0.000000  celldm(6)=   0.000000

     crystal axes: (cart. coord. in units of alat)
               a(1) = (   1.000000   0.000000   0.000000 )  
               a(2) = (  -0.500000   0.866025   0.000000 )  
               a(3) = (   0.000000   0.000000   4.270286 )  

     reciprocal axes: (cart. coord. in units 2 pi/alat)
               b(1) = (  1.000000  0.577350 -0.000000 )  
               b(2) = (  0.000000  1.154701  0.000000 )  
               b(3) = (  0.000000 -0.000000  0.234176 )  


     PseudoPot. # 1 for Sn read from file:
     ../pseudo/Sn_pbe_v1.uspp.F.UPF
     MD5 check sum: 4cf58ce39ec5d5d420df3dd08604eb00
     Pseudo is Ultrasoft + core correction, Zval = 14.0
     Generated by new atomic code, or converted to UPF format
     Using radial grid of  891 points,  6 beta functions with: 
                l(1) =   0
                l(2) =   0
                l(3) =   1
                l(4) =   1
                l(5) =   2
                l(6) =   2
     Q(r) pseudized with  6 coefficients,  rinner =    1.200   1.200   1.200
                                                       1.200   1.200

     atomic species   valence    mass     pseudopotential
        Sn            14.00   118.71000     Sn( 1.00)

      6 Sym. Ops. (no inversion) found



   Cartesian axes

     site n.     atom                  positions (alat units)
         1           Sn  tau(   1) = (   0.0000000   0.5773503   2.1351428  )
         2           Sn  tau(   2) = (   0.5000000   0.2886751   1.9552503  )

     number of k points=    61  Marzari-Vanderbilt smearing, width (Ry)=  0.0300
                       cart. coord. in units 2pi/alat
        k(    1) = (   0.0000000   0.0000000   0.0000000), wk =   0.0034722
        k(    2) = (   0.0000000   0.0481125   0.0000000), wk =   0.0208333
        k(    3) = (   0.0000000   0.0962250   0.0000000), wk =   0.0208333
        k(    4) = (   0.0000000   0.1443376   0.0000000), wk =   0.0208333
        k(    5) = (   0.0000000   0.1924501   0.0000000), wk =   0.0208333
        k(    6) = (   0.0000000   0.2405626   0.0000000), wk =   0.0208333
        k(    7) = (   0.0000000   0.2886751   0.0000000), wk =   0.0208333
        k(    8) = (   0.0000000   0.3367877   0.0000000), wk =   0.0208333
        k(    9) = (   0.0000000   0.3849002   0.0000000), wk =   0.0208333
        k(   10) = (   0.0000000   0.4330127   0.0000000), wk =   0.0208333
        k(   11) = (   0.0000000   0.4811252   0.0000000), wk =   0.0208333
        k(   12) = (   0.0000000   0.5292377   0.0000000), wk =   0.0208333
        k(   13) = (   0.0000000  -0.5773503   0.0000000), wk =   0.0104167
        k(   14) = (   0.0416667   0.0721688   0.0000000), wk =   0.0208333
        k(   15) = (   0.0416667   0.1202813   0.0000000), wk =   0.0416667
        k(   16) = (   0.0416667   0.1683938   0.0000000), wk =   0.0416667
        k(   17) = (   0.0416667   0.2165064   0.0000000), wk =   0.0416667
        k(   18) = (   0.0416667   0.2646189   0.0000000), wk =   0.0416667
        k(   19) = (   0.0416667   0.3127314   0.0000000), wk =   0.0416667
        k(   20) = (   0.0416667   0.3608439   0.0000000), wk =   0.0416667
        k(   21) = (   0.0416667   0.4089564   0.0000000), wk =   0.0416667
        k(   22) = (   0.0416667   0.4570690   0.0000000), wk =   0.0416667
        k(   23) = (   0.0416667   0.5051815   0.0000000), wk =   0.0416667
        k(   24) = (   0.0416667   0.5532940   0.0000000), wk =   0.0416667
        k(   25) = (   0.0833333   0.1443376   0.0000000), wk =   0.0208333
        k(   26) = (   0.0833333   0.1924501   0.0000000), wk =   0.0416667
        k(   27) = (   0.0833333   0.2405626   0.0000000), wk =   0.0416667
        k(   28) = (   0.0833333   0.2886751   0.0000000), wk =   0.0416667
        k(   29) = (   0.0833333   0.3367877   0.0000000), wk =   0.0416667
        k(   30) = (   0.0833333   0.3849002   0.0000000), wk =   0.0416667
        k(   31) = (   0.0833333   0.4330127   0.0000000), wk =   0.0416667
        k(   32) = (   0.0833333   0.4811252   0.0000000), wk =   0.0416667
        k(   33) = (   0.0833333   0.5292377   0.0000000), wk =   0.0416667
        k(   34) = (   0.0833333   0.5773503   0.0000000), wk =   0.0208333
        k(   35) = (   0.1250000   0.2165064   0.0000000), wk =   0.0208333
        k(   36) = (   0.1250000   0.2646189   0.0000000), wk =   0.0416667
        k(   37) = (   0.1250000   0.3127314   0.0000000), wk =   0.0416667
        k(   38) = (   0.1250000   0.3608439   0.0000000), wk =   0.0416667
        k(   39) = (   0.1250000   0.4089564   0.0000000), wk =   0.0416667
        k(   40) = (   0.1250000   0.4570690   0.0000000), wk =   0.0416667
        k(   41) = (   0.1250000   0.5051815   0.0000000), wk =   0.0416667
        k(   42) = (   0.1250000   0.5532940   0.0000000), wk =   0.0416667
        k(   43) = (   0.1666667   0.2886751   0.0000000), wk =   0.0208333
        k(   44) = (   0.1666667   0.3367877   0.0000000), wk =   0.0416667
        k(   45) = (   0.1666667   0.3849002   0.0000000), wk =   0.0416667
        k(   46) = (   0.1666667   0.4330127   0.0000000), wk =   0.0416667
        k(   47) = (   0.1666667   0.4811252   0.0000000), wk =   0.0416667
        k(   48) = (   0.1666667   0.5292377   0.0000000), wk =   0.0416667
        k(   49) = (   0.1666667   0.5773503   0.0000000), wk =   0.0208333
        k(   50) = (   0.2083333   0.3608439   0.0000000), wk =   0.0208333
        k(   51) = (   0.2083333   0.4089564   0.0000000), wk =   0.0416667
        k(   52) = (   0.2083333   0.4570690   0.0000000), wk =   0.0416667
        k(   53) = (   0.2083333   0.5051815   0.0000000), wk =   0.0416667
        k(   54) = (   0.2083333   0.5532940   0.0000000), wk =   0.0416667
        k(   55) = (   0.2500000   0.4330127   0.0000000), wk =   0.0208333
        k(   56) = (   0.2500000   0.4811252   0.0000000), wk =   0.0416667
        k(   57) = (   0.2500000   0.5292377   0.0000000), wk =   0.0416667
        k(   58) = (   0.2500000   0.5773503   0.0000000), wk =   0.0208333
        k(   59) = (   0.2916667   0.5051815   0.0000000), wk =   0.0208333
        k(   60) = (   0.2916667   0.5532940   0.0000000), wk =   0.0416667
        k(   61) = (   0.3333333   0.5773503   0.0000000), wk =   0.0069444

     Dense  grid:   455489 G-vectors     FFT dimensions: (  64,  64, 270)

     Smooth grid:   160939 G-vectors     FFT dimensions: (  45,  45, 192)

     Estimated max dynamical RAM per process >     322.30 MB

     Estimated total dynamical RAM >       1.89 GB

     Initial potential from superposition of free atoms

     starting charge   25.99991, renormalised to   28.00000

     negative rho (up, down):  5.949E-04 0.000E+00
     Starting wfcs are   18 randomized atomic wfcs

     total cpu time spent up to now is        6.0 secs

     Self-consistent Calculation

     iteration #  1     ecut=    60.00 Ry     beta= 0.70
     Davidson diagonalization with overlap
     ethr =  1.00E-02,  avg # of iterations =  8.8

     negative rho (up, down):  5.499E-06 0.000E+00

     total cpu time spent up to now is       28.2 secs

     total energy              =    -325.45356947 Ry
     estimated scf accuracy    <       2.47389126 Ry

     iteration #  2     ecut=    60.00 Ry     beta= 0.70
     Davidson diagonalization with overlap
     ethr =  8.84E-03,  avg # of iterations =  2.1

     negative rho (up, down):  1.905E-05 0.000E+00

     total cpu time spent up to now is       46.9 secs

     total energy              =    -326.35687193 Ry
     estimated scf accuracy    <       0.38735030 Ry

     iteration #  3     ecut=    60.00 Ry     beta= 0.70
     Davidson diagonalization with overlap
     ethr =  1.38E-03,  avg # of iterations =  2.1

     negative rho (up, down):  5.051E-05 0.000E+00

     total cpu time spent up to now is       63.7 secs

     total energy              =    -326.41510150 Ry
     estimated scf accuracy    <       0.00639546 Ry

     iteration #  4     ecut=    60.00 Ry     beta= 0.70
     Davidson diagonalization with overlap
     c_bands:  1 eigenvalues not converged
     ethr =  2.28E-05,  avg # of iterations =  8.5

     negative rho (up, down):  7.902E-05 0.000E+00

     total cpu time spent up to now is       86.4 secs

     total energy              =    -326.41717946 Ry
     estimated scf accuracy    <       0.00037606 Ry

     iteration #  5     ecut=    60.00 Ry     beta= 0.70
     Davidson diagonalization with overlap
     c_bands:  1 eigenvalues not converged
     c_bands:  1 eigenvalues not converged
     ethr =  1.34E-06,  avg # of iterations =  6.0

     negative rho (up, down):  8.173E-05 0.000E+00

     total cpu time spent up to now is      108.8 secs

     total energy              =    -326.41723446 Ry
     estimated scf accuracy    <       0.00002655 Ry

     iteration #  6     ecut=    60.00 Ry     beta= 0.70
     Davidson diagonalization with overlap
     ethr =  9.48E-08,  avg # of iterations =  2.3

     negative rho (up, down):  8.483E-05 0.000E+00

     total cpu time spent up to now is      123.5 secs

     total energy              =    -326.41724171 Ry
     estimated scf accuracy    <       0.00001455 Ry

     iteration #  7     ecut=    60.00 Ry     beta= 0.70
     Davidson diagonalization with overlap
     ethr =  5.19E-08,  avg # of iterations =  2.0

     negative rho (up, down):  8.555E-05 0.000E+00

     total cpu time spent up to now is      138.0 secs

     End of self-consistent calculation

          k = 0.0000 0.0000 0.0000 ( 20025 PWs)   bands (ev):

   -23.5239 -23.5239 -23.4457 -23.4457 -23.4312 -23.3613 -23.2188 -23.2188
   -23.1628 -23.1628 -11.3700  -5.2731  -2.4001  -2.4001  -1.9409  -0.0643
     1.0954   1.0954

          k = 0.0000 0.0481 0.0000 ( 20035 PWs)   bands (ev):

   -23.5248 -23.5247 -23.4474 -23.4445 -23.4288 -23.3600 -23.2213 -23.2212
   -23.1615 -23.1605 -11.3552  -5.2961  -2.6895  -2.4327  -1.6333  -0.0632
     1.0653   1.1512

          k = 0.0000 0.0962 0.0000 ( 20005 PWs)   bands (ev):

   -23.5273 -23.5268 -23.4513 -23.4411 -23.4233 -23.3563 -23.2278 -23.2273
   -23.1583 -23.1547 -11.3112  -5.3737  -3.0764  -2.5232  -1.1973  -0.0631
     1.0098   1.3105

          k = 0.0000 0.1443 0.0000 ( 20065 PWs)   bands (ev):

   -23.5305 -23.5297 -23.4561 -23.4362 -23.4168 -23.3501 -23.2364 -23.2357
   -23.1545 -23.1471 -11.2381  -5.5263  -3.3865  -2.6549  -0.8334  -0.0729
     1.0137   1.5533

          k = 0.0000 0.1925 0.0000 ( 20113 PWs)   bands (ev):

   -23.5338 -23.5331 -23.4614 -23.4302 -23.4105 -23.3418 -23.2459 -23.2451
   -23.1513 -23.1390 -11.1364  -5.7700  -3.5819  -2.8089  -0.6327  -0.0958
     1.1581   2.1784

          k = 0.0000 0.2406 0.0000 ( 20071 PWs)   bands (ev):

   -23.5365 -23.5364 -23.4673 -23.4239 -23.4052 -23.3315 -23.2553 -23.2544
   -23.1491 -23.1310 -11.0070  -6.0959  -3.6626  -2.9693  -0.6200  -0.1248
     1.4167   2.2897

          k = 0.0000 0.2887 0.0000 ( 20087 PWs)   bands (ev):

   -23.5394 -23.5382 -23.4736 -23.4176 -23.4013 -23.3200 -23.2644 -23.2627
   -23.1483 -23.1235 -10.8514  -6.4742  -3.6533  -3.1243  -0.7254  -0.1727
     1.6525   2.4643

          k = 0.0000 0.3368 0.0000 ( 20109 PWs)   bands (ev):

   -23.5420 -23.5386 -23.4801 -23.4119 -23.3990 -23.3082 -23.2726 -23.2694
   -23.1489 -23.1169 -10.6719  -6.8740  -3.5823  -3.2654  -0.8793  -0.2530
     1.8063   2.6665

          k = 0.0000 0.3849 0.0000 ( 20145 PWs)   bands (ev):

   -23.5440 -23.5378 -23.4868 -23.4068 -23.3979 -23.2979 -23.2796 -23.2731
   -23.1507 -23.1112 -10.4729  -7.2709  -3.4724  -3.3869  -1.0497  -0.3572
     1.9377   2.8816

          k = 0.0000 0.4330 0.0000 ( 20161 PWs)   bands (ev):

   -23.5456 -23.5359 -23.4933 -23.4028 -23.3978 -23.2921 -23.2853 -23.2717
   -23.1535 -23.1067 -10.2624  -7.6441  -3.4847  -3.3437  -1.2207  -0.4646
     2.0860   3.1002

          k = 0.0000 0.4811 0.0000 ( 20157 PWs)   bands (ev):

   -23.5466 -23.5331 -23.4994 -23.3999 -23.3982 -23.2912 -23.2895 -23.2660
   -23.1564 -23.1034 -10.0572  -7.9698  -3.5563  -3.2174  -1.3760  -0.5545
     2.2508   3.2796

          k = 0.0000 0.5292 0.0000 ( 20142 PWs)   bands (ev):

   -23.5473 -23.5303 -23.5042 -23.3986 -23.3981 -23.2920 -23.2917 -23.2608
   -23.1588 -23.1014  -9.8920  -8.2088  -3.5999  -3.1207  -1.4903  -0.6128
     2.4009   3.3372

          k = 0.0000-0.5774 0.0000 ( 20152 PWs)   bands (ev):

   -23.5475 -23.5290 -23.5062 -23.3988 -23.3975 -23.2929 -23.2919 -23.2588
   -23.1597 -23.1007  -9.8245  -8.3011  -3.6145  -3.0836  -1.5334  -0.6328
     2.4682   3.3898

          k = 0.0417 0.0722 0.0000 ( 20017 PWs)   bands (ev):

   -23.5265 -23.5262 -23.4500 -23.4424 -23.4249 -23.3575 -23.2259 -23.2253
   -23.1594 -23.1564 -11.3259  -5.3465  -2.9757  -2.4985  -1.3074  -0.0626
     1.0129   1.2674

          k = 0.0417 0.1203 0.0000 ( 20039 PWs)   bands (ev):

   -23.5292 -23.5288 -23.4541 -23.4385 -23.4188 -23.3526 -23.2335 -23.2323
   -23.1563 -23.1495 -11.2673  -5.4619  -3.2834  -2.6195  -0.9260  -0.0684
     0.9591   1.4889

          k = 0.0417 0.1684 0.0000 ( 20081 PWs)   bands (ev):

   -23.5326 -23.5318 -23.4590 -23.4334 -23.4121 -23.3455 -23.2425 -23.2410
   -23.1533 -23.1414 -11.1799  -5.6617  -3.5119  -2.7735  -0.6304  -0.0893
     0.9972   1.7837

          k = 0.0417 0.2165 0.0000 ( 20075 PWs)   bands (ev):

   -23.5361 -23.5345 -23.4646 -23.4276 -23.4058 -23.3364 -23.2518 -23.2502
   -23.1511 -23.1331 -11.0643  -5.9489  -3.6335  -2.9404  -0.5172  -0.1148
     1.1869   2.0982

          k = 0.0417 0.2646 0.0000 ( 20107 PWs)   bands (ev):

   -23.5395 -23.5365 -23.4707 -23.4217 -23.4007 -23.3257 -23.2608 -23.2590
   -23.1500 -23.1252 -10.9216  -6.3022  -3.6594  -3.1049  -0.5811  -0.1367
     1.4647   2.2939

          k = 0.0417 0.3127 0.0000 ( 20105 PWs)   bands (ev):

   -23.5424 -23.5374 -23.4771 -23.4159 -23.3970 -23.3142 -23.2691 -23.2666
   -23.1504 -23.1180 -10.7537  -6.6909  -3.6174  -3.2539  -0.7309  -0.1829
     1.7012   2.4978

          k = 0.0417 0.3608 0.0000 ( 20127 PWs)   bands (ev):

   -23.5447 -23.5372 -23.4837 -23.4107 -23.3948 -23.3033 -23.2766 -23.2718
   -23.1521 -23.1116 -10.5638  -7.0883  -3.5477  -3.3639  -0.9119  -0.2592
     1.8665   2.7218

          k = 0.0417 0.4090 0.0000 ( 20135 PWs)   bands (ev):

   -23.5466 -23.5358 -23.4903 -23.4063 -23.3940 -23.2953 -23.2828 -23.2729
   -23.1548 -23.1064 -10.3576  -7.4731  -3.5585  -3.3414  -1.1016  -0.3500
     2.0158   2.9069

          k = 0.0417 0.4571 0.0000 ( 20146 PWs)   bands (ev):

   -23.5479 -23.5335 -23.4967 -23.4027 -23.3941 -23.2926 -23.2876 -23.2688
   -23.1580 -23.1023 -10.1466  -7.8243  -3.6283  -3.2242  -1.2840  -0.4353
     2.1749   3.0340

          k = 0.0417 0.5052 0.0000 ( 20148 PWs)   bands (ev):

   -23.5487 -23.5306 -23.5022 -23.3999 -23.3949 -23.2927 -23.2907 -23.2629
   -23.1611 -23.0996  -9.9548  -8.1122  -3.6831  -3.1085  -1.4365  -0.4995
     2.3306   3.1212

          k = 0.0417 0.5533 0.0000 ( 20150 PWs)   bands (ev):

   -23.5491 -23.5284 -23.5058 -23.3978 -23.3961 -23.2933 -23.2922 -23.2591
   -23.1629 -23.0982  -9.8299  -8.2859  -3.7116  -3.0359  -1.5271  -0.5335
     2.4365   3.2200

          k = 0.0833 0.1443 0.0000 ( 20061 PWs)   bands (ev):

   -23.5321 -23.5314 -23.4579 -23.4351 -23.4123 -23.3468 -23.2414 -23.2393
   -23.1544 -23.1419 -11.1944  -5.6257  -3.4766  -2.7776  -0.6027  -0.0899
     0.9010   1.7857

          k = 0.0833 0.1925 0.0000 ( 20087 PWs)   bands (ev):

   -23.5359 -23.5336 -23.4628 -23.4306 -23.4051 -23.3392 -23.2500 -23.2476
   -23.1532 -23.1335 -11.0930  -5.8724  -3.5989  -2.9646  -0.3472  -0.1312
     0.9364   2.1284

          k = 0.0833 0.2406 0.0000 ( 20121 PWs)   bands (ev):

   -23.5398 -23.5352 -23.4685 -23.4256 -23.3983 -23.3300 -23.2586 -23.2562
   -23.1529 -23.1250 -10.9639  -6.1902  -3.6404  -3.1541  -0.3460  -0.0953
     1.1321   2.2444

          k = 0.0833 0.2887 0.0000 ( 20106 PWs)   bands (ev):

   -23.5434 -23.5360 -23.4748 -23.4202 -23.3927 -23.3199 -23.2668 -23.2641
   -23.1538 -23.1169 -10.8086  -6.5543  -3.6206  -3.3236  -0.5086  -0.0574
     1.4337   2.3310

          k = 0.0833 0.3368 0.0000 ( 20114 PWs)   bands (ev):

   -23.5466 -23.5358 -23.4813 -23.4150 -23.3888 -23.3097 -23.2742 -23.2701
   -23.1561 -23.1096 -10.6294  -6.9389  -3.6070  -3.4146  -0.7136  -0.0726
     1.7221   2.4819

          k = 0.0833 0.3849 0.0000 ( 20126 PWs)   bands (ev):

   -23.5491 -23.5347 -23.4879 -23.4101 -23.3867 -23.3011 -23.2806 -23.2728
   -23.1594 -23.1033 -10.4303  -7.3226  -3.6928  -3.3452  -0.9346  -0.1184
     1.9409   2.6401

          k = 0.0833 0.4330 0.0000 ( 20149 PWs)   bands (ev):

   -23.5510 -23.5326 -23.4943 -23.4055 -23.3863 -23.2966 -23.2857 -23.2706
   -23.1635 -23.0983 -10.2193  -7.6862  -3.7926  -3.2135  -1.1547  -0.1746
     2.1172   2.7391

          k = 0.0833 0.4811 0.0000 ( 20151 PWs)   bands (ev):

   -23.5523 -23.5300 -23.5002 -23.4014 -23.3874 -23.2955 -23.2897 -23.2650
   -23.1676 -23.0946 -10.0124  -8.0063  -3.8695  -3.0744  -1.3540  -0.2252
     2.2637   2.8253

          k = 0.0833 0.5292 0.0000 ( 20157 PWs)   bands (ev):

   -23.5530 -23.5273 -23.5048 -23.3979 -23.3893 -23.2952 -23.2924 -23.2599
   -23.1708 -23.0923  -9.8442  -8.2440  -3.9169  -2.9627  -1.5016  -0.2596
     2.3573   2.9583

          k = 0.0833 0.5774 0.0000 ( 20154 PWs)   bands (ev):

   -23.5532 -23.5261 -23.5067 -23.3961 -23.3906 -23.2948 -23.2936 -23.2579
   -23.1721 -23.0916  -9.7749  -8.3368  -3.9329  -2.9183  -1.5581  -0.2716
     2.3866   3.0800

          k = 0.1250 0.2165 0.0000 ( 20099 PWs)   bands (ev):

   -23.5399 -23.5348 -23.4677 -23.4271 -23.3972 -23.3317 -23.2579 -23.2551
   -23.1541 -23.1247 -10.9781  -6.1512  -3.6257  -3.1867  -0.2297  -0.0469
     0.9378   2.2533

          k = 0.1250 0.2646 0.0000 ( 20119 PWs)   bands (ev):

   -23.5441 -23.5353 -23.4734 -23.4228 -23.3896 -23.3234 -23.2656 -23.2626
   -23.1563 -23.1159 -10.8362  -6.4804  -3.5985  -3.4027  -0.3733   0.1478
     1.0966   2.3054

          k = 0.1250 0.3127 0.0000 ( 20122 PWs)   bands (ev):

   -23.5479 -23.5349 -23.4797 -23.4179 -23.3832 -23.3151 -23.2727 -23.2688
   -23.1596 -23.1076 -10.6690  -6.8389  -3.6416  -3.4806  -0.5676   0.2197
     1.4059   2.3744

          k = 0.1250 0.3608 0.0000 ( 20112 PWs)   bands (ev):

   -23.5513 -23.5338 -23.4862 -23.4128 -23.3788 -23.3077 -23.2790 -23.2722
   -23.1641 -23.1002 -10.4795  -7.2077  -3.8085  -3.3693  -0.7925   0.2234
     1.7512   2.4415

          k = 0.1250 0.4090 0.0000 ( 20146 PWs)   bands (ev):

   -23.5540 -23.5318 -23.4925 -23.4077 -23.3767 -23.3028 -23.2844 -23.2713
   -23.1694 -23.0940 -10.2728  -7.5694  -3.9525  -3.2224  -1.0296   0.1998
     2.0406   2.4661

          k = 0.1250 0.4571 0.0000 ( 20145 PWs)   bands (ev):

   -23.5561 -23.5293 -23.4985 -23.4028 -23.3770 -23.3005 -23.2888 -23.2667
   -23.1750 -23.0891 -10.0596  -7.9051  -4.0628  -3.0633  -1.2593   0.1687
     2.2180   2.5261

          k = 0.1250 0.5052 0.0000 ( 20141 PWs)   bands (ev):

   -23.5574 -23.5265 -23.5036 -23.3982 -23.3788 -23.2992 -23.2924 -23.2610
   -23.1800 -23.0858  -9.8630  -8.1862  -4.1370  -2.9162  -1.4553   0.1419
     2.2553   2.7138

          k = 0.1250 0.5533 0.0000 ( 20145 PWs)   bands (ev):

   -23.5581 -23.5243 -23.5069 -23.3950 -23.3809 -23.2977 -23.2952 -23.2573
   -23.1831 -23.0841  -9.7318  -8.3603  -4.1743  -2.8206  -1.5758   0.1267
     2.2508   2.9308

          k = 0.1667 0.2887 0.0000 ( 20113 PWs)   bands (ev):

   -23.5484 -23.5346 -23.4791 -23.4190 -23.3809 -23.3173 -23.2722 -23.2683
   -23.1609 -23.1068 -10.6822  -6.8035  -3.6525  -3.5094  -0.5206   0.4375
     1.1639   2.3780

          k = 0.1667 0.3368 0.0000 ( 20110 PWs)   bands (ev):

   -23.5526 -23.5333 -23.4852 -23.4143 -23.3733 -23.3123 -23.2782 -23.2717
   -23.1668 -23.0984 -10.5042  -7.1447  -3.8757  -3.3869  -0.7183   0.5951
     1.4181   2.4439

          k = 0.1667 0.3849 0.0000 ( 20115 PWs)   bands (ev):

   -23.5562 -23.5313 -23.4914 -23.4091 -23.3681 -23.3092 -23.2835 -23.2715
   -23.1736 -23.0910 -10.3056  -7.4898  -4.0656  -3.2357  -0.9442   0.6359
     1.7920   2.3705

          k = 0.1667 0.4330 0.0000 ( 20139 PWs)   bands (ev):

   -23.5591 -23.5288 -23.4972 -23.4037 -23.3658 -23.3073 -23.2883 -23.2677
   -23.1809 -23.0849 -10.0930  -7.8241  -4.2159  -3.0665  -1.1792   0.6354
     2.1591   2.2608

          k = 0.1667 0.4811 0.0000 ( 20145 PWs)   bands (ev):

   -23.5612 -23.5260 -23.5025 -23.3985 -23.3664 -23.3054 -23.2925 -23.2621
   -23.1880 -23.0803  -9.8809  -8.1272  -4.3242  -2.8955  -1.4015   0.6244
     2.1504   2.5052

          k = 0.1667 0.5292 0.0000 ( 20147 PWs)   bands (ev):

   -23.5625 -23.5233 -23.5066 -23.3942 -23.3684 -23.3029 -23.2962 -23.2571
   -23.1936 -23.0776  -9.7026  -8.3618  -4.3894  -2.7533  -1.5760   0.6143
     2.0889   2.7982

          k = 0.1667 0.5774 0.0000 ( 20135 PWs)   bands (ev):

   -23.5630 -23.5221 -23.5083 -23.3924 -23.3696 -23.3004 -23.2992 -23.2550
   -23.1957 -23.0766  -9.6261  -8.4572  -4.4112  -2.6936  -1.6468   0.6104
     2.0677   2.9645

          k = 0.2083 0.3608 0.0000 ( 20119 PWs)   bands (ev):

   -23.5569 -23.5312 -23.4910 -23.4096 -23.3643 -23.3122 -23.2832 -23.2715
   -23.1751 -23.0899 -10.3166  -7.4614  -4.1064  -3.2413  -0.9143   0.9282
     1.5392   2.4133

          k = 0.2083 0.4090 0.0000 ( 20133 PWs)   bands (ev):

   -23.5607 -23.5286 -23.4966 -23.4043 -23.3575 -23.3133 -23.2880 -23.2682
   -23.1842 -23.0826 -10.1103  -7.7787  -4.3002  -3.0713  -1.1338   1.0849
     1.8559   2.2415

          k = 0.2083 0.4571 0.0000 ( 20137 PWs)   bands (ev):

   -23.5638 -23.5258 -23.5017 -23.3987 -23.3544 -23.3131 -23.2925 -23.2629
   -23.1933 -23.0768  -9.8935  -8.0832  -4.4489  -2.8889  -1.3590   1.1309
     2.0675   2.2805

          k = 0.2083 0.5052 0.0000 ( 20163 PWs)   bands (ev):

   -23.5659 -23.5229 -23.5061 -23.3937 -23.3548 -23.3105 -23.2970 -23.2571
   -23.2015 -23.0728  -9.6857  -8.3519  -4.5492  -2.7138  -1.5653   1.1464
     1.9604   2.6509

          k = 0.2083 0.5533 0.0000 ( 20157 PWs)   bands (ev):

   -23.5670 -23.5207 -23.5091 -23.3905 -23.3563 -23.3062 -23.3015 -23.2530
   -23.2069 -23.0708  -9.5374  -8.5313  -4.5995  -2.5907  -1.7049   1.1523
     1.9010   2.9394

          k = 0.2500 0.4330 0.0000 ( 20149 PWs)   bands (ev):

   -23.5647 -23.5257 -23.5015 -23.3988 -23.3483 -23.3176 -23.2925 -23.2632
   -23.1952 -23.0756  -9.8981  -8.0669  -4.4927  -2.8877  -1.3430   1.4502
     2.0241   2.0856

          k = 0.2500 0.4811 0.0000 ( 20153 PWs)   bands (ev):

   -23.5677 -23.5228 -23.5058 -23.3935 -23.3430 -23.3188 -23.2973 -23.2572
   -23.2058 -23.0703  -9.6783  -8.3429  -4.6342  -2.6962  -1.5555   1.6099
     1.9398   2.3934

          k = 0.2500 0.5292 0.0000 ( 20133 PWs)   bands (ev):

   -23.5695 -23.5201 -23.5094 -23.3893 -23.3426 -23.3149 -23.3027 -23.2515
   -23.2147 -23.0671  -9.4772  -8.5786  -4.7204  -2.5222  -1.7433   1.6759
     1.8264   2.7965

          k = 0.2500 0.5774 0.0000 ( 20123 PWs)   bands (ev):

   -23.5702 -23.5187 -23.5110 -23.3877 -23.3433 -23.3089 -23.3085 -23.2488
   -23.2185 -23.0660  -9.3788  -8.6886  -4.7493  -2.4384  -1.8320   1.7223
     1.7583   3.0110

          k = 0.2917 0.5052 0.0000 ( 20137 PWs)   bands (ev):

   -23.5704 -23.5199 -23.5094 -23.3889 -23.3334 -23.3223 -23.3031 -23.2509
   -23.2175 -23.0658  -9.4557  -8.5950  -4.7620  -2.4979  -1.7569   1.7260
     2.1261   2.5592

          k = 0.2917 0.5533 0.0000 ( 20132 PWs)   bands (ev):

   -23.5719 -23.5175 -23.5123 -23.3862 -23.3307 -23.3180 -23.3101 -23.2449
   -23.2266 -23.0635  -9.2588  -8.8066  -4.8271  -2.3250  -1.9316   1.6826
     2.2624   2.8551

          k = 0.3333 0.5774 0.0000 ( 20133 PWs)   bands (ev):

   -23.5727 -23.5149 -23.5149 -23.3851 -23.3211 -23.3186 -23.3186 -23.2367
   -23.2367 -23.0623  -9.0342  -9.0342  -4.8633  -2.1267  -2.1267   1.6495
     2.6915   2.6915

     the Fermi energy is    -2.2944 ev

!    total energy              =    -326.41724369 Ry
     estimated scf accuracy    <       0.00000024 Ry
     smearing contrib. (-TS)   =       0.00418532 Ry
     internal energy E=F+TS    =    -326.42142901 Ry

     The total energy is F=E-TS. E is the sum of the following terms:
     one-electron contribution =    -856.46353960 Ry
     hartree contribution      =     435.92765121 Ry
     xc contribution           =     -95.00700594 Ry
     ewald contribution        =     189.12146532 Ry

     convergence has been achieved in   7 iterations

     Writing output data file ../tmp/stanene.save/

     init_run     :      5.65s CPU      5.92s WALL (       1 calls)
     electrons    :    127.13s CPU    132.04s WALL (       1 calls)

     Called by init_run:
     wfcinit      :      4.39s CPU      4.59s WALL (       1 calls)
     potinit      :      0.42s CPU      0.43s WALL (       1 calls)
     hinit0       :      0.40s CPU      0.40s WALL (       1 calls)

     Called by electrons:
     c_bands      :    109.27s CPU    112.32s WALL (       7 calls)
     sum_band     :     14.12s CPU     15.30s WALL (       7 calls)
     v_of_rho     :      1.44s CPU      1.54s WALL (       8 calls)
     newd         :      2.27s CPU      2.88s WALL (       8 calls)
     mix_rho      :      0.27s CPU      0.28s WALL (       7 calls)

     Called by c_bands:
     init_us_2    :      0.88s CPU      0.89s WALL (     915 calls)
     cegterg      :    105.86s CPU    108.88s WALL (     427 calls)

     Called by *egterg:
     cdiaghg      :      1.66s CPU      1.67s WALL (    2365 calls)
     h_psi        :     66.04s CPU     69.02s WALL (    2426 calls)
     s_psi        :      4.62s CPU      4.66s WALL (    2426 calls)
     g_psi        :      0.42s CPU      0.43s WALL (    1938 calls)

     Called by h_psi:
     h_psi:calbec :      8.29s CPU      8.54s WALL (    2426 calls)
     vloc_psi     :     52.73s CPU     55.39s WALL (    2426 calls)
     add_vuspsi   :      4.77s CPU      4.84s WALL (    2426 calls)

     General routines
     calbec       :     10.73s CPU     11.06s WALL (    2853 calls)
     fft          :      1.57s CPU      1.64s WALL (     102 calls)
     ffts         :      0.05s CPU      0.05s WALL (      15 calls)
     fftw         :     55.82s CPU     58.53s WALL (   54922 calls)
     interpolate  :      0.19s CPU      0.19s WALL (       8 calls)

     Parallel routines
     fft_scatt_xy :      4.86s CPU      5.22s WALL (   55039 calls)
     fft_scatt_yz :     31.62s CPU     32.73s WALL (   55039 calls)

     PWSCF        :   2m13.00s CPU   2m18.47s WALL


   This run was terminated on:  23:33:15  23Jan2024            

=------------------------------------------------------------------------------=
   JOB DONE.
=------------------------------------------------------------------------------=
