
     Program PWSCF v.6.7MaX starts on 23Jan2024 at 23:24:26 

     This program is part of the open-source Quantum ESPRESSO suite
     for quantum simulation of materials; please cite
         "P. Giannozzi et al., J. Phys.:Condens. Matter 21 395502 (2009);
         "P. Giannozzi et al., J. Phys.:Condens. Matter 29 465901 (2017);
          URL http://www.quantum-espresso.org", 
     in publications or presentations arising from this work. More details at
     http://www.quantum-espresso.org/quote

     Parallel version (MPI), running on     6 processors

     MPI processes distributed on     1 nodes
     R & G space division:  proc/nbgrp/npool/nimage =       6
     Waiting for input...
     Reading input from standard input

     Current dimensions of program PWSCF are:
     Max number of different atomic species (ntypx) = 10
     Max number of k-points (npk) =  40000
     Max angular momentum in pseudopotentials (lmaxx) =  3

     Subspace diagonalization in iterative solution of the eigenvalue problem:
     one sub-group per band group will be used
     scalapack distributed-memory algorithm (size of sub-group:  2*  2 procs)


     Parallelization info
     --------------------
     sticks:   dense  smooth     PW     G-vecs:    dense   smooth      PW
     Min         431     214     61                75909    26818    4015
     Max         432     215     62                75924    26841    4025
     Sum        2587    1285    367               455489   160939   24117



     bravais-lattice index     =            4
     lattice parameter (alat)  =       8.8506  a.u.
     unit-cell volume          =    2563.9136 (a.u.)^3
     number of atoms/cell      =            2
     number of atomic types    =            1
     number of electrons       =        28.00
     number of Kohn-Sham states=           18
     kinetic-energy cutoff     =      60.0000  Ry
     charge density cutoff     =     480.0000  Ry
     scf convergence threshold =      1.0E-06
     mixing beta               =       0.7000
     number of iterations used =            8  plain     mixing
     Exchange-correlation= SLA  PW   PBE  PBE
                           (   1   4   3   4   0   0   0)

     celldm(1)=   8.850584  celldm(2)=   0.000000  celldm(3)=   4.270286
     celldm(4)=   0.000000  celldm(5)=   0.000000  celldm(6)=   0.000000

     crystal axes: (cart. coord. in units of alat)
               a(1) = (   1.000000   0.000000   0.000000 )  
               a(2) = (  -0.500000   0.866025   0.000000 )  
               a(3) = (   0.000000   0.000000   4.270286 )  

     reciprocal axes: (cart. coord. in units 2 pi/alat)
               b(1) = (  1.000000  0.577350 -0.000000 )  
               b(2) = (  0.000000  1.154701  0.000000 )  
               b(3) = (  0.000000 -0.000000  0.234176 )  


     PseudoPot. # 1 for Sn read from file:
     ../pseudo/Sn_pbe_v1.uspp.F.UPF
     MD5 check sum: 4cf58ce39ec5d5d420df3dd08604eb00
     Pseudo is Ultrasoft + core correction, Zval = 14.0
     Generated by new atomic code, or converted to UPF format
     Using radial grid of  891 points,  6 beta functions with: 
                l(1) =   0
                l(2) =   0
                l(3) =   1
                l(4) =   1
                l(5) =   2
                l(6) =   2
     Q(r) pseudized with  6 coefficients,  rinner =    1.200   1.200   1.200
                                                       1.200   1.200

     atomic species   valence    mass     pseudopotential
        Sn            14.00   118.71000     Sn( 1.00)

      6 Sym. Ops. (no inversion) found



   Cartesian axes

     site n.     atom                  positions (alat units)
         1           Sn  tau(   1) = (   0.0000000   0.5773503   2.1351428  )
         2           Sn  tau(   2) = (   0.5000000   0.2886751   1.9552503  )

     number of k points=    61  Marzari-Vanderbilt smearing, width (Ry)=  0.0150
                       cart. coord. in units 2pi/alat
        k(    1) = (   0.0000000   0.0000000   0.0000000), wk =   0.0034722
        k(    2) = (   0.0000000   0.0481125   0.0000000), wk =   0.0208333
        k(    3) = (   0.0000000   0.0962250   0.0000000), wk =   0.0208333
        k(    4) = (   0.0000000   0.1443376   0.0000000), wk =   0.0208333
        k(    5) = (   0.0000000   0.1924501   0.0000000), wk =   0.0208333
        k(    6) = (   0.0000000   0.2405626   0.0000000), wk =   0.0208333
        k(    7) = (   0.0000000   0.2886751   0.0000000), wk =   0.0208333
        k(    8) = (   0.0000000   0.3367877   0.0000000), wk =   0.0208333
        k(    9) = (   0.0000000   0.3849002   0.0000000), wk =   0.0208333
        k(   10) = (   0.0000000   0.4330127   0.0000000), wk =   0.0208333
        k(   11) = (   0.0000000   0.4811252   0.0000000), wk =   0.0208333
        k(   12) = (   0.0000000   0.5292377   0.0000000), wk =   0.0208333
        k(   13) = (   0.0000000  -0.5773503   0.0000000), wk =   0.0104167
        k(   14) = (   0.0416667   0.0721688   0.0000000), wk =   0.0208333
        k(   15) = (   0.0416667   0.1202813   0.0000000), wk =   0.0416667
        k(   16) = (   0.0416667   0.1683938   0.0000000), wk =   0.0416667
        k(   17) = (   0.0416667   0.2165064   0.0000000), wk =   0.0416667
        k(   18) = (   0.0416667   0.2646189   0.0000000), wk =   0.0416667
        k(   19) = (   0.0416667   0.3127314   0.0000000), wk =   0.0416667
        k(   20) = (   0.0416667   0.3608439   0.0000000), wk =   0.0416667
        k(   21) = (   0.0416667   0.4089564   0.0000000), wk =   0.0416667
        k(   22) = (   0.0416667   0.4570690   0.0000000), wk =   0.0416667
        k(   23) = (   0.0416667   0.5051815   0.0000000), wk =   0.0416667
        k(   24) = (   0.0416667   0.5532940   0.0000000), wk =   0.0416667
        k(   25) = (   0.0833333   0.1443376   0.0000000), wk =   0.0208333
        k(   26) = (   0.0833333   0.1924501   0.0000000), wk =   0.0416667
        k(   27) = (   0.0833333   0.2405626   0.0000000), wk =   0.0416667
        k(   28) = (   0.0833333   0.2886751   0.0000000), wk =   0.0416667
        k(   29) = (   0.0833333   0.3367877   0.0000000), wk =   0.0416667
        k(   30) = (   0.0833333   0.3849002   0.0000000), wk =   0.0416667
        k(   31) = (   0.0833333   0.4330127   0.0000000), wk =   0.0416667
        k(   32) = (   0.0833333   0.4811252   0.0000000), wk =   0.0416667
        k(   33) = (   0.0833333   0.5292377   0.0000000), wk =   0.0416667
        k(   34) = (   0.0833333   0.5773503   0.0000000), wk =   0.0208333
        k(   35) = (   0.1250000   0.2165064   0.0000000), wk =   0.0208333
        k(   36) = (   0.1250000   0.2646189   0.0000000), wk =   0.0416667
        k(   37) = (   0.1250000   0.3127314   0.0000000), wk =   0.0416667
        k(   38) = (   0.1250000   0.3608439   0.0000000), wk =   0.0416667
        k(   39) = (   0.1250000   0.4089564   0.0000000), wk =   0.0416667
        k(   40) = (   0.1250000   0.4570690   0.0000000), wk =   0.0416667
        k(   41) = (   0.1250000   0.5051815   0.0000000), wk =   0.0416667
        k(   42) = (   0.1250000   0.5532940   0.0000000), wk =   0.0416667
        k(   43) = (   0.1666667   0.2886751   0.0000000), wk =   0.0208333
        k(   44) = (   0.1666667   0.3367877   0.0000000), wk =   0.0416667
        k(   45) = (   0.1666667   0.3849002   0.0000000), wk =   0.0416667
        k(   46) = (   0.1666667   0.4330127   0.0000000), wk =   0.0416667
        k(   47) = (   0.1666667   0.4811252   0.0000000), wk =   0.0416667
        k(   48) = (   0.1666667   0.5292377   0.0000000), wk =   0.0416667
        k(   49) = (   0.1666667   0.5773503   0.0000000), wk =   0.0208333
        k(   50) = (   0.2083333   0.3608439   0.0000000), wk =   0.0208333
        k(   51) = (   0.2083333   0.4089564   0.0000000), wk =   0.0416667
        k(   52) = (   0.2083333   0.4570690   0.0000000), wk =   0.0416667
        k(   53) = (   0.2083333   0.5051815   0.0000000), wk =   0.0416667
        k(   54) = (   0.2083333   0.5532940   0.0000000), wk =   0.0416667
        k(   55) = (   0.2500000   0.4330127   0.0000000), wk =   0.0208333
        k(   56) = (   0.2500000   0.4811252   0.0000000), wk =   0.0416667
        k(   57) = (   0.2500000   0.5292377   0.0000000), wk =   0.0416667
        k(   58) = (   0.2500000   0.5773503   0.0000000), wk =   0.0208333
        k(   59) = (   0.2916667   0.5051815   0.0000000), wk =   0.0208333
        k(   60) = (   0.2916667   0.5532940   0.0000000), wk =   0.0416667
        k(   61) = (   0.3333333   0.5773503   0.0000000), wk =   0.0069444

     Dense  grid:   455489 G-vectors     FFT dimensions: (  64,  64, 270)

     Smooth grid:   160939 G-vectors     FFT dimensions: (  45,  45, 192)

     Estimated max dynamical RAM per process >     322.30 MB

     Estimated total dynamical RAM >       1.89 GB

     Initial potential from superposition of free atoms

     starting charge   25.99991, renormalised to   28.00000

     negative rho (up, down):  5.949E-04 0.000E+00
     Starting wfcs are   18 randomized atomic wfcs

     total cpu time spent up to now is        6.4 secs

     Self-consistent Calculation

     iteration #  1     ecut=    60.00 Ry     beta= 0.70
     Davidson diagonalization with overlap
     ethr =  1.00E-02,  avg # of iterations =  8.8

     negative rho (up, down):  2.651E-05 0.000E+00

     total cpu time spent up to now is       27.0 secs

     total energy              =    -325.45844180 Ry
     estimated scf accuracy    <       2.46762600 Ry

     iteration #  2     ecut=    60.00 Ry     beta= 0.70
     Davidson diagonalization with overlap
     ethr =  8.81E-03,  avg # of iterations =  2.1

     negative rho (up, down):  4.044E-05 0.000E+00

     total cpu time spent up to now is       44.3 secs

     total energy              =    -326.35852068 Ry
     estimated scf accuracy    <       0.38163949 Ry

     iteration #  3     ecut=    60.00 Ry     beta= 0.70
     Davidson diagonalization with overlap
     ethr =  1.36E-03,  avg # of iterations =  2.2

     negative rho (up, down):  6.322E-05 0.000E+00

     total cpu time spent up to now is       61.9 secs

     total energy              =    -326.41639885 Ry
     estimated scf accuracy    <       0.00631122 Ry

     iteration #  4     ecut=    60.00 Ry     beta= 0.70
     Davidson diagonalization with overlap
     c_bands:  1 eigenvalues not converged
     ethr =  2.25E-05,  avg # of iterations =  8.4

     negative rho (up, down):  8.145E-05 0.000E+00

     total cpu time spent up to now is       82.8 secs

     total energy              =    -326.41846297 Ry
     estimated scf accuracy    <       0.00037560 Ry

     iteration #  5     ecut=    60.00 Ry     beta= 0.70
     Davidson diagonalization with overlap
     ethr =  1.34E-06,  avg # of iterations =  5.4

     negative rho (up, down):  8.297E-05 0.000E+00

     total cpu time spent up to now is      101.1 secs

     total energy              =    -326.41851003 Ry
     estimated scf accuracy    <       0.00003295 Ry

     iteration #  6     ecut=    60.00 Ry     beta= 0.70
     Davidson diagonalization with overlap
     ethr =  1.18E-07,  avg # of iterations =  2.2

     negative rho (up, down):  8.494E-05 0.000E+00

     total cpu time spent up to now is      115.3 secs

     total energy              =    -326.41851791 Ry
     estimated scf accuracy    <       0.00001276 Ry

     iteration #  7     ecut=    60.00 Ry     beta= 0.70
     Davidson diagonalization with overlap
     ethr =  4.56E-08,  avg # of iterations =  2.0

     negative rho (up, down):  8.558E-05 0.000E+00

     total cpu time spent up to now is      129.8 secs

     End of self-consistent calculation

          k = 0.0000 0.0000 0.0000 ( 20025 PWs)   bands (ev):

   -23.5205 -23.5205 -23.4425 -23.4425 -23.4282 -23.3583 -23.2156 -23.2156
   -23.1594 -23.1594 -11.3669  -5.2708  -2.3971  -2.3971  -1.9380  -0.0631
     1.0977   1.0977

          k = 0.0000 0.0481 0.0000 ( 20035 PWs)   bands (ev):

   -23.5215 -23.5213 -23.4443 -23.4413 -23.4258 -23.3571 -23.2181 -23.2179
   -23.1581 -23.1571 -11.3522  -5.2939  -2.6866  -2.4296  -1.6303  -0.0619
     1.0676   1.1535

          k = 0.0000 0.0962 0.0000 ( 20005 PWs)   bands (ev):

   -23.5239 -23.5234 -23.4482 -23.4379 -23.4202 -23.3533 -23.2246 -23.2241
   -23.1549 -23.1513 -11.3081  -5.3713  -3.0736  -2.5201  -1.1944  -0.0618
     1.0120   1.3128

          k = 0.0000 0.1443 0.0000 ( 20065 PWs)   bands (ev):

   -23.5272 -23.5263 -23.4530 -23.4330 -23.4137 -23.3471 -23.2332 -23.2325
   -23.1511 -23.1437 -11.2350  -5.5238  -3.3838  -2.6519  -0.8305  -0.0715
     1.0160   1.5557

          k = 0.0000 0.1925 0.0000 ( 20113 PWs)   bands (ev):

   -23.5305 -23.5297 -23.4584 -23.4270 -23.4074 -23.3387 -23.2426 -23.2419
   -23.1479 -23.1355 -11.1334  -5.7674  -3.5794  -2.8059  -0.6300  -0.0944
     1.1604   2.1785

          k = 0.0000 0.2406 0.0000 ( 20071 PWs)   bands (ev):

   -23.5332 -23.5330 -23.4643 -23.4207 -23.4020 -23.3284 -23.2521 -23.2512
   -23.1457 -23.1275 -11.0040  -6.0931  -3.6603  -2.9664  -0.6175  -0.1231
     1.4188   2.2898

          k = 0.0000 0.2887 0.0000 ( 20087 PWs)   bands (ev):

   -23.5360 -23.5349 -23.4705 -23.4145 -23.3981 -23.3169 -23.2612 -23.2595
   -23.1449 -23.1201 -10.8483  -6.4713  -3.6511  -3.1213  -0.7230  -0.1708
     1.6541   2.4645

          k = 0.0000 0.3368 0.0000 ( 20109 PWs)   bands (ev):

   -23.5385 -23.5354 -23.4771 -23.4087 -23.3957 -23.3051 -23.2694 -23.2662
   -23.1455 -23.1134 -10.6689  -6.8711  -3.5801  -3.2625  -0.8771  -0.2509
     1.8075   2.6666

          k = 0.0000 0.3849 0.0000 ( 20145 PWs)   bands (ev):

   -23.5406 -23.5346 -23.4837 -23.4037 -23.3947 -23.2947 -23.2764 -23.2700
   -23.1473 -23.1078 -10.4698  -7.2679  -3.4703  -3.3839  -1.0476  -0.3550
     1.9387   2.8818

          k = 0.0000 0.4330 0.0000 ( 20161 PWs)   bands (ev):

   -23.5421 -23.5326 -23.4903 -23.3997 -23.3946 -23.2890 -23.2821 -23.2687
   -23.1501 -23.1033 -10.2594  -7.6412  -3.4818  -3.3416  -1.2187  -0.4623
     2.0870   3.1005

          k = 0.0000 0.4811 0.0000 ( 20157 PWs)   bands (ev):

   -23.5432 -23.5299 -23.4963 -23.3967 -23.3949 -23.2881 -23.2863 -23.2630
   -23.1530 -23.0999 -10.0542  -7.9668  -3.5534  -3.2153  -1.3739  -0.5521
     2.2518   3.2803

          k = 0.0000 0.5292 0.0000 ( 20142 PWs)   bands (ev):

   -23.5438 -23.5271 -23.5011 -23.3953 -23.3950 -23.2888 -23.2886 -23.2578
   -23.1553 -23.0979  -9.8889  -8.2058  -3.5970  -3.1186  -1.4883  -0.6103
     2.4019   3.3378

          k = 0.0000-0.5774 0.0000 ( 20152 PWs)   bands (ev):

   -23.5440 -23.5258 -23.5031 -23.3955 -23.3944 -23.2897 -23.2888 -23.2558
   -23.1563 -23.0973  -9.8214  -8.2981  -3.6116  -3.0815  -1.5314  -0.6304
     2.4693   3.3919

          k = 0.0417 0.0722 0.0000 ( 20017 PWs)   bands (ev):

   -23.5231 -23.5228 -23.4469 -23.4392 -23.4218 -23.3545 -23.2227 -23.2220
   -23.1560 -23.1530 -11.3228  -5.3441  -2.9729  -2.4954  -1.3045  -0.0613
     1.0152   1.2697

          k = 0.0417 0.1203 0.0000 ( 20039 PWs)   bands (ev):

   -23.5258 -23.5254 -23.4510 -23.4354 -23.4157 -23.3496 -23.2302 -23.2290
   -23.1529 -23.1461 -11.2642  -5.4595  -3.2807  -2.6165  -0.9230  -0.0671
     0.9614   1.4913

          k = 0.0417 0.1684 0.0000 ( 20081 PWs)   bands (ev):

   -23.5292 -23.5284 -23.4559 -23.4303 -23.4090 -23.3425 -23.2392 -23.2377
   -23.1499 -23.1380 -11.1768  -5.6591  -3.5093  -2.7705  -0.6276  -0.0879
     0.9995   1.7861

          k = 0.0417 0.2165 0.0000 ( 20075 PWs)   bands (ev):

   -23.5328 -23.5311 -23.4615 -23.4245 -23.4027 -23.3333 -23.2485 -23.2469
   -23.1477 -23.1297 -11.0612  -5.9461  -3.6311  -2.9375  -0.5146  -0.1132
     1.1892   2.1004

          k = 0.0417 0.2646 0.0000 ( 20107 PWs)   bands (ev):

   -23.5361 -23.5331 -23.4676 -23.4185 -23.3975 -23.3226 -23.2576 -23.2558
   -23.1467 -23.1218 -10.9186  -6.2994  -3.6571  -3.1019  -0.5787  -0.1348
     1.4666   2.2942

          k = 0.0417 0.3127 0.0000 ( 20105 PWs)   bands (ev):

   -23.5390 -23.5341 -23.4741 -23.4128 -23.3938 -23.3111 -23.2659 -23.2634
   -23.1470 -23.1145 -10.7507  -6.6880  -3.6152  -3.2510  -0.7287  -0.1809
     1.7027   2.4995

          k = 0.0417 0.3608 0.0000 ( 20127 PWs)   bands (ev):

   -23.5413 -23.5339 -23.4807 -23.4076 -23.3916 -23.3001 -23.2734 -23.2687
   -23.1487 -23.1082 -10.5607  -7.0854  -3.5454  -3.3611  -0.9097  -0.2570
     1.8677   2.7231

          k = 0.0417 0.4090 0.0000 ( 20135 PWs)   bands (ev):

   -23.5431 -23.5326 -23.4873 -23.4031 -23.3907 -23.2921 -23.2796 -23.2699
   -23.1514 -23.1029 -10.3545  -7.4701  -3.5558  -3.3391  -1.0995  -0.3476
     2.0168   2.9081

          k = 0.0417 0.4571 0.0000 ( 20146 PWs)   bands (ev):

   -23.5444 -23.5302 -23.4936 -23.3996 -23.3909 -23.2894 -23.2844 -23.2657
   -23.1546 -23.0989 -10.1435  -7.8213  -3.6255  -3.2220  -1.2820  -0.4329
     2.1759   3.0353

          k = 0.0417 0.5052 0.0000 ( 20148 PWs)   bands (ev):

   -23.5453 -23.5274 -23.4992 -23.3968 -23.3917 -23.2896 -23.2876 -23.2598
   -23.1577 -23.0961  -9.9518  -8.1092  -3.6803  -3.1064  -1.4345  -0.4971
     2.3316   3.1227

          k = 0.0417 0.5533 0.0000 ( 20150 PWs)   bands (ev):

   -23.5457 -23.5252 -23.5027 -23.3946 -23.3929 -23.2901 -23.2891 -23.2561
   -23.1595 -23.0947  -9.8268  -8.2829  -3.7088  -3.0338  -1.5251  -0.5311
     2.4376   3.2215

          k = 0.0833 0.1443 0.0000 ( 20061 PWs)   bands (ev):

   -23.5287 -23.5281 -23.4549 -23.4319 -23.4092 -23.3438 -23.2381 -23.2361
   -23.1511 -23.1385 -11.1913  -5.6231  -3.4740  -2.7746  -0.5998  -0.0885
     0.9032   1.7880

          k = 0.0833 0.1925 0.0000 ( 20087 PWs)   bands (ev):

   -23.5325 -23.5302 -23.4598 -23.4275 -23.4020 -23.3361 -23.2468 -23.2444
   -23.1498 -23.1300 -11.0899  -5.8697  -3.5965  -2.9616  -0.3444  -0.1296
     0.9386   2.2343

          k = 0.0833 0.2406 0.0000 ( 20121 PWs)   bands (ev):

   -23.5364 -23.5319 -23.4655 -23.4224 -23.3951 -23.3269 -23.2554 -23.2530
   -23.1495 -23.1215 -10.9609  -6.1874  -3.6381  -3.1512  -0.3438  -0.0931
     1.1342   2.2454

          k = 0.0833 0.2887 0.0000 ( 20106 PWs)   bands (ev):

   -23.5400 -23.5327 -23.4717 -23.4171 -23.3895 -23.3168 -23.2636 -23.2609
   -23.1505 -23.1134 -10.8056  -6.5514  -3.6184  -3.3207  -0.5065  -0.0551
     1.4356   2.3321

          k = 0.0833 0.3368 0.0000 ( 20114 PWs)   bands (ev):

   -23.5432 -23.5325 -23.4783 -23.4118 -23.3856 -23.3065 -23.2710 -23.2670
   -23.1527 -23.1061 -10.6263  -6.9359  -3.6045  -3.4121  -0.7116  -0.0702
     1.7236   2.4837

          k = 0.0833 0.3849 0.0000 ( 20126 PWs)   bands (ev):

   -23.5457 -23.5314 -23.4849 -23.4069 -23.3834 -23.2979 -23.2774 -23.2698
   -23.1560 -23.0999 -10.4273  -7.3196  -3.6900  -3.3430  -0.9325  -0.1160
     1.9421   2.6418

          k = 0.0833 0.4330 0.0000 ( 20149 PWs)   bands (ev):

   -23.5475 -23.5294 -23.4913 -23.4024 -23.3830 -23.2934 -23.2826 -23.2675
   -23.1601 -23.0948 -10.2162  -7.6832  -3.7898  -3.2113  -1.1527  -0.1721
     2.1182   2.7410

          k = 0.0833 0.4811 0.0000 ( 20151 PWs)   bands (ev):

   -23.5488 -23.5267 -23.4971 -23.3983 -23.3841 -23.2923 -23.2865 -23.2619
   -23.1642 -23.0911 -10.0093  -8.0033  -3.8667  -3.0722  -1.3519  -0.2227
     2.2648   2.8269

          k = 0.0833 0.5292 0.0000 ( 20157 PWs)   bands (ev):

   -23.5495 -23.5241 -23.5017 -23.3948 -23.3860 -23.2920 -23.2893 -23.2569
   -23.1674 -23.0888  -9.8411  -8.2410  -3.9141  -2.9605  -1.4996  -0.2571
     2.3585   2.9598

          k = 0.0833 0.5774 0.0000 ( 20154 PWs)   bands (ev):

   -23.5498 -23.5229 -23.5036 -23.3930 -23.3873 -23.2916 -23.2905 -23.2549
   -23.1687 -23.0881  -9.7718  -8.3338  -3.9301  -2.9161  -1.5561  -0.2691
     2.3879   3.0814

          k = 0.1250 0.2165 0.0000 ( 20099 PWs)   bands (ev):

   -23.5365 -23.5315 -23.4646 -23.4240 -23.3940 -23.3286 -23.2547 -23.2519
   -23.1508 -23.1212 -10.9750  -6.1484  -3.6234  -3.1838  -0.2280  -0.0441
     0.9399   2.2540

          k = 0.1250 0.2646 0.0000 ( 20119 PWs)   bands (ev):

   -23.5406 -23.5320 -23.4704 -23.4196 -23.3864 -23.3203 -23.2624 -23.2594
   -23.1529 -23.1124 -10.8331  -6.4775  -3.5962  -3.3999  -0.3715   0.1505
     1.0986   2.3064

          k = 0.1250 0.3127 0.0000 ( 20122 PWs)   bands (ev):

   -23.5445 -23.5316 -23.4766 -23.4148 -23.3800 -23.3119 -23.2695 -23.2656
   -23.1562 -23.1041 -10.6659  -6.8360  -3.6389  -3.4783  -0.5657   0.2223
     1.4078   2.3756

          k = 0.1250 0.3608 0.0000 ( 20112 PWs)   bands (ev):

   -23.5479 -23.5305 -23.4831 -23.4097 -23.3756 -23.3045 -23.2758 -23.2691
   -23.1607 -23.0967 -10.4764  -7.2047  -3.8057  -3.3671  -0.7906   0.2259
     1.7528   2.4431

          k = 0.1250 0.4090 0.0000 ( 20146 PWs)   bands (ev):

   -23.5506 -23.5286 -23.4895 -23.4046 -23.3735 -23.2995 -23.2812 -23.2683
   -23.1660 -23.0905 -10.2698  -7.5664  -3.9497  -3.2203  -1.0276   0.2023
     2.0419   2.4680

          k = 0.1250 0.4571 0.0000 ( 20145 PWs)   bands (ev):

   -23.5526 -23.5260 -23.4954 -23.3996 -23.3737 -23.2973 -23.2857 -23.2636
   -23.1716 -23.0857 -10.0566  -7.9021  -4.0600  -3.0612  -1.2573   0.1712
     2.2191   2.5278

          k = 0.1250 0.5052 0.0000 ( 20141 PWs)   bands (ev):

   -23.5539 -23.5233 -23.5005 -23.3951 -23.3756 -23.2960 -23.2893 -23.2580
   -23.1766 -23.0823  -9.8599  -8.1832  -4.1343  -2.9140  -1.4532   0.1444
     2.2567   2.7151

          k = 0.1250 0.5533 0.0000 ( 20145 PWs)   bands (ev):

   -23.5546 -23.5211 -23.5038 -23.3919 -23.3776 -23.2945 -23.2921 -23.2542
   -23.1797 -23.0806  -9.7288  -8.3573  -4.1716  -2.8184  -1.5738   0.1292
     2.2524   2.9319

          k = 0.1667 0.2887 0.0000 ( 20113 PWs)   bands (ev):

   -23.5450 -23.5314 -23.4761 -23.4158 -23.3777 -23.3141 -23.2690 -23.2651
   -23.1576 -23.1034 -10.6792  -6.8006  -3.6496  -3.5072  -0.5188   0.4402
     1.1659   2.3793

          k = 0.1667 0.3368 0.0000 ( 20110 PWs)   bands (ev):

   -23.5491 -23.5300 -23.4822 -23.4112 -23.3701 -23.3091 -23.2750 -23.2686
   -23.1634 -23.0949 -10.5011  -7.1417  -3.8729  -3.3848  -0.7164   0.5977
     1.4200   2.4454

          k = 0.1667 0.3849 0.0000 ( 20115 PWs)   bands (ev):

   -23.5527 -23.5281 -23.4883 -23.4060 -23.3649 -23.3059 -23.2804 -23.2685
   -23.1702 -23.0875 -10.3025  -7.4868  -4.0628  -3.2335  -0.9422   0.6385
     1.7939   2.3722

          k = 0.1667 0.4330 0.0000 ( 20139 PWs)   bands (ev):

   -23.5556 -23.5256 -23.4942 -23.4006 -23.3626 -23.3040 -23.2851 -23.2647
   -23.1776 -23.0814 -10.0900  -7.8211  -4.2132  -3.0644  -1.1772   0.6380
     2.1605   2.2626

          k = 0.1667 0.4811 0.0000 ( 20145 PWs)   bands (ev):

   -23.5578 -23.5228 -23.4994 -23.3954 -23.3631 -23.3022 -23.2893 -23.2591
   -23.1847 -23.0769  -9.8778  -8.1242  -4.3215  -2.8934  -1.3994   0.6269
     2.1520   2.5064

          k = 0.1667 0.5292 0.0000 ( 20147 PWs)   bands (ev):

   -23.5591 -23.5202 -23.5035 -23.3911 -23.3651 -23.2997 -23.2931 -23.2540
   -23.1902 -23.0741  -9.6995  -8.3587  -4.3867  -2.7512  -1.5740   0.6169
     2.0906   2.7992

          k = 0.1667 0.5774 0.0000 ( 20135 PWs)   bands (ev):

   -23.5595 -23.5189 -23.5052 -23.3893 -23.3663 -23.2972 -23.2960 -23.2519
   -23.1924 -23.0731  -9.6231  -8.4542  -4.4085  -2.6915  -1.6448   0.6130
     2.0694   2.9656

          k = 0.2083 0.3608 0.0000 ( 20119 PWs)   bands (ev):

   -23.5535 -23.5279 -23.4879 -23.4065 -23.3611 -23.3089 -23.2801 -23.2685
   -23.1718 -23.0864 -10.3135  -7.4584  -4.1036  -3.2392  -0.9123   0.9309
     1.5411   2.4151

          k = 0.2083 0.4090 0.0000 ( 20133 PWs)   bands (ev):

   -23.5573 -23.5254 -23.4935 -23.4011 -23.3543 -23.3100 -23.2848 -23.2651
   -23.1808 -23.0791 -10.1072  -7.7756  -4.2974  -3.0692  -1.1318   1.0875
     1.8580   2.2433

          k = 0.2083 0.4571 0.0000 ( 20137 PWs)   bands (ev):

   -23.5603 -23.5226 -23.4987 -23.3956 -23.3511 -23.3098 -23.2893 -23.2598
   -23.1900 -23.0733  -9.8905  -8.0802  -4.4462  -2.8868  -1.3570   1.1335
     2.0694   2.2823

          k = 0.2083 0.5052 0.0000 ( 20163 PWs)   bands (ev):

   -23.5624 -23.5198 -23.5031 -23.3906 -23.3515 -23.3072 -23.2938 -23.2541
   -23.1982 -23.0693  -9.6826  -8.3488  -4.5465  -2.7118  -1.5633   1.1490
     1.9622   2.6522

          k = 0.2083 0.5533 0.0000 ( 20157 PWs)   bands (ev):

   -23.5635 -23.5176 -23.5060 -23.3874 -23.3530 -23.3030 -23.2983 -23.2500
   -23.2036 -23.0673  -9.5343  -8.5282  -4.5968  -2.5886  -1.7029   1.1549
     1.9028   2.9405

          k = 0.2500 0.4330 0.0000 ( 20149 PWs)   bands (ev):

   -23.5612 -23.5225 -23.4984 -23.3957 -23.3451 -23.3143 -23.2893 -23.2601
   -23.1918 -23.0721  -9.8950  -8.0639  -4.4899  -2.8856  -1.3410   1.4527
     2.0261   2.0874

          k = 0.2500 0.4811 0.0000 ( 20153 PWs)   bands (ev):

   -23.5642 -23.5196 -23.5028 -23.3903 -23.3398 -23.3155 -23.2942 -23.2542
   -23.2025 -23.0668  -9.6753  -8.3398  -4.6315  -2.6942  -1.5535   1.6123
     1.9417   2.3952

          k = 0.2500 0.5292 0.0000 ( 20133 PWs)   bands (ev):

   -23.5661 -23.5170 -23.5063 -23.3862 -23.3394 -23.3116 -23.2995 -23.2484
   -23.2114 -23.0636  -9.4741  -8.5755  -4.7177  -2.5201  -1.7413   1.6783
     1.8284   2.7980

          k = 0.2500 0.5774 0.0000 ( 20123 PWs)   bands (ev):

   -23.5667 -23.5156 -23.5080 -23.3846 -23.3400 -23.3057 -23.3053 -23.2457
   -23.2153 -23.0625  -9.3757  -8.6856  -4.7466  -2.4363  -1.8299   1.7249
     1.7601   3.0122

          k = 0.2917 0.5052 0.0000 ( 20137 PWs)   bands (ev):

   -23.5670 -23.5168 -23.5064 -23.3858 -23.3302 -23.3189 -23.2999 -23.2478
   -23.2143 -23.0623  -9.4526  -8.5920  -4.7593  -2.4959  -1.7549   1.7278
     2.1287   2.5612

          k = 0.2917 0.5533 0.0000 ( 20132 PWs)   bands (ev):

   -23.5684 -23.5143 -23.5092 -23.3831 -23.3274 -23.3147 -23.3069 -23.2418
   -23.2233 -23.0600  -9.2558  -8.8035  -4.8244  -2.3229  -1.9295   1.6844
     2.2649   2.8570

          k = 0.3333 0.5774 0.0000 ( 20133 PWs)   bands (ev):

   -23.5692 -23.5118 -23.5118 -23.3819 -23.3179 -23.3153 -23.3153 -23.2335
   -23.2335 -23.0588  -9.0312  -9.0311  -4.8606  -2.1246  -2.1246   1.6513
     2.6939   2.6939

     the Fermi energy is    -2.2430 ev

!    total energy              =    -326.41851953 Ry
     estimated scf accuracy    <       0.00000067 Ry
     smearing contrib. (-TS)   =       0.00058771 Ry
     internal energy E=F+TS    =    -326.41910724 Ry

     The total energy is F=E-TS. E is the sum of the following terms:
     one-electron contribution =    -856.47519210 Ry
     hartree contribution      =     435.94318566 Ry
     xc contribution           =     -95.00856613 Ry
     ewald contribution        =     189.12146532 Ry

     convergence has been achieved in   7 iterations

     Writing output data file ../tmp/stanene.save/

     init_run     :      6.00s CPU      6.38s WALL (       1 calls)
     electrons    :    118.32s CPU    123.35s WALL (       1 calls)

     Called by init_run:
     wfcinit      :      4.64s CPU      4.90s WALL (       1 calls)
     potinit      :      0.47s CPU      0.50s WALL (       1 calls)
     hinit0       :      0.47s CPU      0.48s WALL (       1 calls)

     Called by electrons:
     c_bands      :    102.21s CPU    105.45s WALL (       7 calls)
     sum_band     :     12.36s CPU     13.47s WALL (       7 calls)
     v_of_rho     :      1.49s CPU      1.60s WALL (       8 calls)
     newd         :      2.22s CPU      2.83s WALL (       8 calls)
     mix_rho      :      0.31s CPU      0.32s WALL (       7 calls)

     Called by c_bands:
     init_us_2    :      0.84s CPU      0.85s WALL (     915 calls)
     cegterg      :     98.83s CPU    102.04s WALL (     427 calls)

     Called by *egterg:
     cdiaghg      :      1.53s CPU      1.55s WALL (    2313 calls)
     h_psi        :     61.35s CPU     64.60s WALL (    2374 calls)
     s_psi        :      4.58s CPU      4.62s WALL (    2374 calls)
     g_psi        :      0.41s CPU      0.42s WALL (    1886 calls)

     Called by h_psi:
     h_psi:calbec :      7.85s CPU      8.19s WALL (    2374 calls)
     vloc_psi     :     48.58s CPU     51.39s WALL (    2374 calls)
     add_vuspsi   :      4.67s CPU      4.77s WALL (    2374 calls)

     General routines
     calbec       :     10.00s CPU     10.38s WALL (    2801 calls)
     fft          :      1.56s CPU      1.64s WALL (     102 calls)
     ffts         :      0.03s CPU      0.03s WALL (      15 calls)
     fftw         :     50.43s CPU     53.13s WALL (   54708 calls)
     interpolate  :      0.17s CPU      0.19s WALL (       8 calls)

     Parallel routines
     fft_scatt_xy :      4.63s CPU      5.00s WALL (   54825 calls)
     fft_scatt_yz :     26.77s CPU     27.81s WALL (   54825 calls)

     PWSCF        :   2m 4.58s CPU   2m10.20s WALL


   This run was terminated on:  23:26:37  23Jan2024            

=------------------------------------------------------------------------------=
   JOB DONE.
=------------------------------------------------------------------------------=
