
     Program PWSCF v.6.7MaX starts on 23Jan2024 at 23:28:45 

     This program is part of the open-source Quantum ESPRESSO suite
     for quantum simulation of materials; please cite
         "P. Giannozzi et al., J. Phys.:Condens. Matter 21 395502 (2009);
         "P. Giannozzi et al., J. Phys.:Condens. Matter 29 465901 (2017);
          URL http://www.quantum-espresso.org", 
     in publications or presentations arising from this work. More details at
     http://www.quantum-espresso.org/quote

     Parallel version (MPI), running on     6 processors

     MPI processes distributed on     1 nodes
     R & G space division:  proc/nbgrp/npool/nimage =       6
     Waiting for input...
     Reading input from standard input

     Current dimensions of program PWSCF are:
     Max number of different atomic species (ntypx) = 10
     Max number of k-points (npk) =  40000
     Max angular momentum in pseudopotentials (lmaxx) =  3

     Subspace diagonalization in iterative solution of the eigenvalue problem:
     one sub-group per band group will be used
     scalapack distributed-memory algorithm (size of sub-group:  2*  2 procs)


     Parallelization info
     --------------------
     sticks:   dense  smooth     PW     G-vecs:    dense   smooth      PW
     Min         431     214     61                75909    26818    4015
     Max         432     215     62                75924    26841    4025
     Sum        2587    1285    367               455489   160939   24117



     bravais-lattice index     =            4
     lattice parameter (alat)  =       8.8506  a.u.
     unit-cell volume          =    2563.9136 (a.u.)^3
     number of atoms/cell      =            2
     number of atomic types    =            1
     number of electrons       =        28.00
     number of Kohn-Sham states=           18
     kinetic-energy cutoff     =      60.0000  Ry
     charge density cutoff     =     480.0000  Ry
     scf convergence threshold =      1.0E-06
     mixing beta               =       0.7000
     number of iterations used =            8  plain     mixing
     Exchange-correlation= SLA  PW   PBE  PBE
                           (   1   4   3   4   0   0   0)

     celldm(1)=   8.850584  celldm(2)=   0.000000  celldm(3)=   4.270286
     celldm(4)=   0.000000  celldm(5)=   0.000000  celldm(6)=   0.000000

     crystal axes: (cart. coord. in units of alat)
               a(1) = (   1.000000   0.000000   0.000000 )  
               a(2) = (  -0.500000   0.866025   0.000000 )  
               a(3) = (   0.000000   0.000000   4.270286 )  

     reciprocal axes: (cart. coord. in units 2 pi/alat)
               b(1) = (  1.000000  0.577350 -0.000000 )  
               b(2) = (  0.000000  1.154701  0.000000 )  
               b(3) = (  0.000000 -0.000000  0.234176 )  


     PseudoPot. # 1 for Sn read from file:
     ../pseudo/Sn_pbe_v1.uspp.F.UPF
     MD5 check sum: 4cf58ce39ec5d5d420df3dd08604eb00
     Pseudo is Ultrasoft + core correction, Zval = 14.0
     Generated by new atomic code, or converted to UPF format
     Using radial grid of  891 points,  6 beta functions with: 
                l(1) =   0
                l(2) =   0
                l(3) =   1
                l(4) =   1
                l(5) =   2
                l(6) =   2
     Q(r) pseudized with  6 coefficients,  rinner =    1.200   1.200   1.200
                                                       1.200   1.200

     atomic species   valence    mass     pseudopotential
        Sn            14.00   118.71000     Sn( 1.00)

      6 Sym. Ops. (no inversion) found



   Cartesian axes

     site n.     atom                  positions (alat units)
         1           Sn  tau(   1) = (   0.0000000   0.5773503   2.1351428  )
         2           Sn  tau(   2) = (   0.5000000   0.2886751   1.9552503  )

     number of k points=    61  Marzari-Vanderbilt smearing, width (Ry)=  0.0250
                       cart. coord. in units 2pi/alat
        k(    1) = (   0.0000000   0.0000000   0.0000000), wk =   0.0034722
        k(    2) = (   0.0000000   0.0481125   0.0000000), wk =   0.0208333
        k(    3) = (   0.0000000   0.0962250   0.0000000), wk =   0.0208333
        k(    4) = (   0.0000000   0.1443376   0.0000000), wk =   0.0208333
        k(    5) = (   0.0000000   0.1924501   0.0000000), wk =   0.0208333
        k(    6) = (   0.0000000   0.2405626   0.0000000), wk =   0.0208333
        k(    7) = (   0.0000000   0.2886751   0.0000000), wk =   0.0208333
        k(    8) = (   0.0000000   0.3367877   0.0000000), wk =   0.0208333
        k(    9) = (   0.0000000   0.3849002   0.0000000), wk =   0.0208333
        k(   10) = (   0.0000000   0.4330127   0.0000000), wk =   0.0208333
        k(   11) = (   0.0000000   0.4811252   0.0000000), wk =   0.0208333
        k(   12) = (   0.0000000   0.5292377   0.0000000), wk =   0.0208333
        k(   13) = (   0.0000000  -0.5773503   0.0000000), wk =   0.0104167
        k(   14) = (   0.0416667   0.0721688   0.0000000), wk =   0.0208333
        k(   15) = (   0.0416667   0.1202813   0.0000000), wk =   0.0416667
        k(   16) = (   0.0416667   0.1683938   0.0000000), wk =   0.0416667
        k(   17) = (   0.0416667   0.2165064   0.0000000), wk =   0.0416667
        k(   18) = (   0.0416667   0.2646189   0.0000000), wk =   0.0416667
        k(   19) = (   0.0416667   0.3127314   0.0000000), wk =   0.0416667
        k(   20) = (   0.0416667   0.3608439   0.0000000), wk =   0.0416667
        k(   21) = (   0.0416667   0.4089564   0.0000000), wk =   0.0416667
        k(   22) = (   0.0416667   0.4570690   0.0000000), wk =   0.0416667
        k(   23) = (   0.0416667   0.5051815   0.0000000), wk =   0.0416667
        k(   24) = (   0.0416667   0.5532940   0.0000000), wk =   0.0416667
        k(   25) = (   0.0833333   0.1443376   0.0000000), wk =   0.0208333
        k(   26) = (   0.0833333   0.1924501   0.0000000), wk =   0.0416667
        k(   27) = (   0.0833333   0.2405626   0.0000000), wk =   0.0416667
        k(   28) = (   0.0833333   0.2886751   0.0000000), wk =   0.0416667
        k(   29) = (   0.0833333   0.3367877   0.0000000), wk =   0.0416667
        k(   30) = (   0.0833333   0.3849002   0.0000000), wk =   0.0416667
        k(   31) = (   0.0833333   0.4330127   0.0000000), wk =   0.0416667
        k(   32) = (   0.0833333   0.4811252   0.0000000), wk =   0.0416667
        k(   33) = (   0.0833333   0.5292377   0.0000000), wk =   0.0416667
        k(   34) = (   0.0833333   0.5773503   0.0000000), wk =   0.0208333
        k(   35) = (   0.1250000   0.2165064   0.0000000), wk =   0.0208333
        k(   36) = (   0.1250000   0.2646189   0.0000000), wk =   0.0416667
        k(   37) = (   0.1250000   0.3127314   0.0000000), wk =   0.0416667
        k(   38) = (   0.1250000   0.3608439   0.0000000), wk =   0.0416667
        k(   39) = (   0.1250000   0.4089564   0.0000000), wk =   0.0416667
        k(   40) = (   0.1250000   0.4570690   0.0000000), wk =   0.0416667
        k(   41) = (   0.1250000   0.5051815   0.0000000), wk =   0.0416667
        k(   42) = (   0.1250000   0.5532940   0.0000000), wk =   0.0416667
        k(   43) = (   0.1666667   0.2886751   0.0000000), wk =   0.0208333
        k(   44) = (   0.1666667   0.3367877   0.0000000), wk =   0.0416667
        k(   45) = (   0.1666667   0.3849002   0.0000000), wk =   0.0416667
        k(   46) = (   0.1666667   0.4330127   0.0000000), wk =   0.0416667
        k(   47) = (   0.1666667   0.4811252   0.0000000), wk =   0.0416667
        k(   48) = (   0.1666667   0.5292377   0.0000000), wk =   0.0416667
        k(   49) = (   0.1666667   0.5773503   0.0000000), wk =   0.0208333
        k(   50) = (   0.2083333   0.3608439   0.0000000), wk =   0.0208333
        k(   51) = (   0.2083333   0.4089564   0.0000000), wk =   0.0416667
        k(   52) = (   0.2083333   0.4570690   0.0000000), wk =   0.0416667
        k(   53) = (   0.2083333   0.5051815   0.0000000), wk =   0.0416667
        k(   54) = (   0.2083333   0.5532940   0.0000000), wk =   0.0416667
        k(   55) = (   0.2500000   0.4330127   0.0000000), wk =   0.0208333
        k(   56) = (   0.2500000   0.4811252   0.0000000), wk =   0.0416667
        k(   57) = (   0.2500000   0.5292377   0.0000000), wk =   0.0416667
        k(   58) = (   0.2500000   0.5773503   0.0000000), wk =   0.0208333
        k(   59) = (   0.2916667   0.5051815   0.0000000), wk =   0.0208333
        k(   60) = (   0.2916667   0.5532940   0.0000000), wk =   0.0416667
        k(   61) = (   0.3333333   0.5773503   0.0000000), wk =   0.0069444

     Dense  grid:   455489 G-vectors     FFT dimensions: (  64,  64, 270)

     Smooth grid:   160939 G-vectors     FFT dimensions: (  45,  45, 192)

     Estimated max dynamical RAM per process >     322.30 MB

     Estimated total dynamical RAM >       1.89 GB

     Initial potential from superposition of free atoms

     starting charge   25.99991, renormalised to   28.00000

     negative rho (up, down):  5.949E-04 0.000E+00
     Starting wfcs are   18 randomized atomic wfcs

     total cpu time spent up to now is        6.7 secs

     Self-consistent Calculation

     iteration #  1     ecut=    60.00 Ry     beta= 0.70
     Davidson diagonalization with overlap
     ethr =  1.00E-02,  avg # of iterations =  8.8

     negative rho (up, down):  1.075E-05 0.000E+00

     total cpu time spent up to now is       26.4 secs

     total energy              =    -325.45577283 Ry
     estimated scf accuracy    <       2.47118875 Ry

     iteration #  2     ecut=    60.00 Ry     beta= 0.70
     Davidson diagonalization with overlap
     ethr =  8.83E-03,  avg # of iterations =  2.1

     negative rho (up, down):  2.596E-05 0.000E+00

     total cpu time spent up to now is       43.1 secs

     total energy              =    -326.35779223 Ry
     estimated scf accuracy    <       0.38457609 Ry

     iteration #  3     ecut=    60.00 Ry     beta= 0.70
     Davidson diagonalization with overlap
     ethr =  1.37E-03,  avg # of iterations =  2.1

     negative rho (up, down):  5.568E-05 0.000E+00

     total cpu time spent up to now is       61.0 secs

     total energy              =    -326.41568601 Ry
     estimated scf accuracy    <       0.00640078 Ry

     iteration #  4     ecut=    60.00 Ry     beta= 0.70
     Davidson diagonalization with overlap
     c_bands:  1 eigenvalues not converged
     ethr =  2.29E-05,  avg # of iterations =  8.4

     negative rho (up, down):  7.989E-05 0.000E+00

     total cpu time spent up to now is       82.4 secs

     total energy              =    -326.41777557 Ry
     estimated scf accuracy    <       0.00039077 Ry

     iteration #  5     ecut=    60.00 Ry     beta= 0.70
     Davidson diagonalization with overlap
     ethr =  1.40E-06,  avg # of iterations =  5.6

     negative rho (up, down):  8.217E-05 0.000E+00

     total cpu time spent up to now is      101.4 secs

     total energy              =    -326.41783328 Ry
     estimated scf accuracy    <       0.00002746 Ry

     iteration #  6     ecut=    60.00 Ry     beta= 0.70
     Davidson diagonalization with overlap
     ethr =  9.81E-08,  avg # of iterations =  2.1

     negative rho (up, down):  8.490E-05 0.000E+00

     total cpu time spent up to now is      115.1 secs

     total energy              =    -326.41784076 Ry
     estimated scf accuracy    <       0.00001385 Ry

     iteration #  7     ecut=    60.00 Ry     beta= 0.70
     Davidson diagonalization with overlap
     ethr =  4.95E-08,  avg # of iterations =  2.2

     negative rho (up, down):  8.556E-05 0.000E+00

     total cpu time spent up to now is      130.0 secs

     End of self-consistent calculation

          k = 0.0000 0.0000 0.0000 ( 20025 PWs)   bands (ev):

   -23.5213 -23.5213 -23.4432 -23.4432 -23.4288 -23.3589 -23.2163 -23.2163
   -23.1602 -23.1602 -11.3680  -5.2716  -2.3982  -2.3982  -1.9390  -0.0635
     1.0969   1.0969

          k = 0.0000 0.0481 0.0000 ( 20035 PWs)   bands (ev):

   -23.5222 -23.5221 -23.4449 -23.4420 -23.4264 -23.3576 -23.2188 -23.2186
   -23.1589 -23.1579 -11.3533  -5.2947  -2.6876  -2.4307  -1.6313  -0.0623
     1.0668   1.1527

          k = 0.0000 0.0962 0.0000 ( 20005 PWs)   bands (ev):

   -23.5247 -23.5242 -23.4488 -23.4386 -23.4209 -23.3539 -23.2253 -23.2248
   -23.1557 -23.1521 -11.3092  -5.3721  -3.0746  -2.5212  -1.1954  -0.0623
     1.0113   1.3121

          k = 0.0000 0.1443 0.0000 ( 20065 PWs)   bands (ev):

   -23.5279 -23.5271 -23.4536 -23.4337 -23.4144 -23.3477 -23.2339 -23.2332
   -23.1519 -23.1445 -11.2361  -5.5247  -3.3848  -2.6529  -0.8315  -0.0720
     1.0152   1.5549

          k = 0.0000 0.1925 0.0000 ( 20113 PWs)   bands (ev):

   -23.5312 -23.5304 -23.4590 -23.4277 -23.4080 -23.3393 -23.2433 -23.2426
   -23.1486 -23.1363 -11.1344  -5.7683  -3.5803  -2.8070  -0.6309  -0.0949
     1.1596   2.1785

          k = 0.0000 0.2406 0.0000 ( 20071 PWs)   bands (ev):

   -23.5339 -23.5337 -23.4649 -23.4214 -23.4027 -23.3291 -23.2528 -23.2518
   -23.1465 -23.1283 -11.0051  -6.0940  -3.6611  -2.9674  -0.6184  -0.1237
     1.4181   2.2899

          k = 0.0000 0.2887 0.0000 ( 20087 PWs)   bands (ev):

   -23.5368 -23.5356 -23.4712 -23.4151 -23.3988 -23.3175 -23.2619 -23.2602
   -23.1457 -23.1209 -10.8494  -6.4723  -3.6519  -3.1224  -0.7238  -0.1715
     1.6535   2.4644

          k = 0.0000 0.3368 0.0000 ( 20109 PWs)   bands (ev):

   -23.5393 -23.5361 -23.4777 -23.4094 -23.3964 -23.3057 -23.2701 -23.2669
   -23.1463 -23.1142 -10.6699  -6.8721  -3.5809  -3.2635  -0.8778  -0.2516
     1.8070   2.6666

          k = 0.0000 0.3849 0.0000 ( 20145 PWs)   bands (ev):

   -23.5414 -23.5353 -23.4843 -23.4044 -23.3954 -23.2954 -23.2771 -23.2706
   -23.1481 -23.1086 -10.4709  -7.2689  -3.4711  -3.3850  -1.0483  -0.3557
     1.9384   2.8817

          k = 0.0000 0.4330 0.0000 ( 20161 PWs)   bands (ev):

   -23.5429 -23.5333 -23.4909 -23.4003 -23.3953 -23.2896 -23.2828 -23.2693
   -23.1508 -23.1040 -10.2604  -7.6422  -3.4828  -3.3423  -1.2194  -0.4631
     2.0866   3.1004

          k = 0.0000 0.4811 0.0000 ( 20157 PWs)   bands (ev):

   -23.5440 -23.5306 -23.4970 -23.3974 -23.3956 -23.2887 -23.2870 -23.2636
   -23.1538 -23.1007 -10.0553  -7.9678  -3.5544  -3.2160  -1.3747  -0.5529
     2.2514   3.2800

          k = 0.0000 0.5292 0.0000 ( 20142 PWs)   bands (ev):

   -23.5446 -23.5278 -23.5018 -23.3960 -23.3956 -23.2895 -23.2892 -23.2584
   -23.1561 -23.0987  -9.8900  -8.2069  -3.5980  -3.1194  -1.4890  -0.6112
     2.4016   3.3376

          k = 0.0000-0.5774 0.0000 ( 20152 PWs)   bands (ev):

   -23.5448 -23.5265 -23.5037 -23.3962 -23.3950 -23.2904 -23.2895 -23.2564
   -23.1570 -23.0981  -9.8225  -8.2992  -3.6127  -3.0823  -1.5321  -0.6312
     2.4690   3.3910

          k = 0.0417 0.0722 0.0000 ( 20017 PWs)   bands (ev):

   -23.5238 -23.5236 -23.4476 -23.4398 -23.4225 -23.3551 -23.2234 -23.2227
   -23.1568 -23.1537 -11.3239  -5.3449  -2.9739  -2.4965  -1.3055  -0.0618
     1.0144   1.2689

          k = 0.0417 0.1203 0.0000 ( 20039 PWs)   bands (ev):

   -23.5266 -23.5262 -23.4516 -23.4360 -23.4164 -23.3502 -23.2309 -23.2297
   -23.1537 -23.1468 -11.2653  -5.4603  -3.2817  -2.6176  -0.9240  -0.0675
     0.9606   1.4905

          k = 0.0417 0.1684 0.0000 ( 20081 PWs)   bands (ev):

   -23.5300 -23.5292 -23.4566 -23.4309 -23.4096 -23.3431 -23.2399 -23.2384
   -23.1507 -23.1388 -11.1779  -5.6600  -3.5102  -2.7715  -0.6286  -0.0884
     0.9987   1.7852

          k = 0.0417 0.2165 0.0000 ( 20075 PWs)   bands (ev):

   -23.5335 -23.5319 -23.4622 -23.4252 -23.4033 -23.3339 -23.2492 -23.2476
   -23.1484 -23.1305 -11.0623  -5.9471  -3.6319  -2.9385  -0.5155  -0.1137
     1.1884   2.0997

          k = 0.0417 0.2646 0.0000 ( 20107 PWs)   bands (ev):

   -23.5369 -23.5339 -23.4682 -23.4192 -23.3982 -23.3232 -23.2582 -23.2565
   -23.1474 -23.1226 -10.9196  -6.3004  -3.6580  -3.1030  -0.5795  -0.1354
     1.4660   2.2947

          k = 0.0417 0.3127 0.0000 ( 20105 PWs)   bands (ev):

   -23.5398 -23.5349 -23.4747 -23.4134 -23.3945 -23.3117 -23.2666 -23.2641
   -23.1478 -23.1153 -10.7518  -6.6890  -3.6160  -3.2520  -0.7294  -0.1816
     1.7021   2.4987

          k = 0.0417 0.3608 0.0000 ( 20127 PWs)   bands (ev):

   -23.5421 -23.5347 -23.4813 -23.4082 -23.3923 -23.3008 -23.2741 -23.2693
   -23.1494 -23.1090 -10.5618  -7.0864  -3.5462  -3.3621  -0.9104  -0.2577
     1.8672   2.7224

          k = 0.0417 0.4090 0.0000 ( 20135 PWs)   bands (ev):

   -23.5439 -23.5333 -23.4879 -23.4038 -23.3914 -23.2928 -23.2803 -23.2705
   -23.1521 -23.1037 -10.3556  -7.4712  -3.5567  -3.3399  -1.1003  -0.3484
     2.0164   2.9076

          k = 0.0417 0.4571 0.0000 ( 20146 PWs)   bands (ev):

   -23.5452 -23.5309 -23.4943 -23.4002 -23.3916 -23.2901 -23.2850 -23.2663
   -23.1554 -23.0997 -10.1446  -7.8224  -3.6265  -3.2228  -1.2827  -0.4337
     2.1756   3.0348

          k = 0.0417 0.5052 0.0000 ( 20148 PWs)   bands (ev):

   -23.5461 -23.5281 -23.4998 -23.3974 -23.3924 -23.2902 -23.2882 -23.2604
   -23.1584 -23.0969  -9.9528  -8.1102  -3.6813  -3.1072  -1.4352  -0.4979
     2.3312   3.1221

          k = 0.0417 0.5533 0.0000 ( 20150 PWs)   bands (ev):

   -23.5465 -23.5259 -23.5033 -23.3953 -23.3936 -23.2908 -23.2897 -23.2567
   -23.1603 -23.0955  -9.8279  -8.2839  -3.7098  -3.0346  -1.5258  -0.5319
     2.4372   3.2210

          k = 0.0833 0.1443 0.0000 ( 20061 PWs)   bands (ev):

   -23.5294 -23.5288 -23.4555 -23.4326 -23.4098 -23.3444 -23.2388 -23.2368
   -23.1518 -23.1393 -11.1924  -5.6240  -3.4749  -2.7757  -0.6008  -0.0889
     0.9024   1.7873

          k = 0.0833 0.1925 0.0000 ( 20087 PWs)   bands (ev):

   -23.5333 -23.5310 -23.4604 -23.4281 -23.4026 -23.3368 -23.2475 -23.2451
   -23.1505 -23.1308 -11.0910  -5.8706  -3.5974  -2.9627  -0.3453  -0.1301
     0.9379   2.2340

          k = 0.0833 0.2406 0.0000 ( 20121 PWs)   bands (ev):

   -23.5372 -23.5326 -23.4661 -23.4231 -23.3958 -23.3276 -23.2561 -23.2536
   -23.1503 -23.1223 -10.9620  -6.1884  -3.6389  -3.1522  -0.3445  -0.0939
     1.1335   2.2450

          k = 0.0833 0.2887 0.0000 ( 20106 PWs)   bands (ev):

   -23.5408 -23.5334 -23.4723 -23.4177 -23.3902 -23.3174 -23.2643 -23.2616
   -23.1512 -23.1142 -10.8067  -6.5524  -3.6192  -3.3217  -0.5072  -0.0559
     1.4349   2.3318

          k = 0.0833 0.3368 0.0000 ( 20114 PWs)   bands (ev):

   -23.5440 -23.5333 -23.4789 -23.4125 -23.3863 -23.3072 -23.2716 -23.2676
   -23.1534 -23.1069 -10.6274  -6.9369  -3.6054  -3.4130  -0.7123  -0.0710
     1.7231   2.4830

          k = 0.0833 0.3849 0.0000 ( 20126 PWs)   bands (ev):

   -23.5465 -23.5321 -23.4855 -23.4076 -23.3841 -23.2986 -23.2781 -23.2704
   -23.1568 -23.1007 -10.4283  -7.3207  -3.6910  -3.3438  -0.9332  -0.1168
     1.9417   2.6412

          k = 0.0833 0.4330 0.0000 ( 20149 PWs)   bands (ev):

   -23.5483 -23.5301 -23.4919 -23.4030 -23.3838 -23.2941 -23.2832 -23.2681
   -23.1608 -23.0956 -10.2173  -7.6843  -3.7908  -3.2121  -1.1534  -0.1730
     2.1178   2.7402

          k = 0.0833 0.4811 0.0000 ( 20151 PWs)   bands (ev):

   -23.5496 -23.5274 -23.4978 -23.3989 -23.3848 -23.2930 -23.2872 -23.2625
   -23.1650 -23.0919 -10.0104  -8.0044  -3.8677  -3.0730  -1.3526  -0.2236
     2.2644   2.8263

          k = 0.0833 0.5292 0.0000 ( 20157 PWs)   bands (ev):

   -23.5503 -23.5248 -23.5024 -23.3955 -23.3867 -23.2927 -23.2899 -23.2575
   -23.1682 -23.0896  -9.8422  -8.2421  -3.9151  -2.9613  -1.5003  -0.2579
     2.3581   2.9592

          k = 0.0833 0.5774 0.0000 ( 20154 PWs)   bands (ev):

   -23.5506 -23.5236 -23.5043 -23.3937 -23.3880 -23.2923 -23.2912 -23.2555
   -23.1694 -23.0889  -9.7729  -8.3348  -3.9311  -2.9169  -1.5568  -0.2700
     2.3875   3.0809

          k = 0.1250 0.2165 0.0000 ( 20099 PWs)   bands (ev):

   -23.5373 -23.5322 -23.4653 -23.4246 -23.3947 -23.3292 -23.2554 -23.2526
   -23.1515 -23.1220 -10.9761  -6.1494  -3.6242  -3.1848  -0.2286  -0.0450
     0.9392   2.2537

          k = 0.1250 0.2646 0.0000 ( 20119 PWs)   bands (ev):

   -23.5414 -23.5327 -23.4710 -23.4203 -23.3870 -23.3210 -23.2631 -23.2600
   -23.1536 -23.1132 -10.8342  -6.4785  -3.5970  -3.4009  -0.3721   0.1495
     1.0979   2.3061

          k = 0.1250 0.3127 0.0000 ( 20122 PWs)   bands (ev):

   -23.5453 -23.5324 -23.4773 -23.4154 -23.3807 -23.3126 -23.2702 -23.2663
   -23.1570 -23.1049 -10.6670  -6.8370  -3.6399  -3.4791  -0.5663   0.2214
     1.4071   2.3752

          k = 0.1250 0.3608 0.0000 ( 20112 PWs)   bands (ev):

   -23.5487 -23.5312 -23.4837 -23.4104 -23.3763 -23.3051 -23.2765 -23.2697
   -23.1614 -23.0975 -10.4775  -7.2058  -3.8067  -3.3679  -0.7912   0.2251
     1.7523   2.4426

          k = 0.1250 0.4090 0.0000 ( 20146 PWs)   bands (ev):

   -23.5514 -23.5293 -23.4901 -23.4052 -23.3742 -23.3002 -23.2819 -23.2689
   -23.1668 -23.0913 -10.2708  -7.5674  -3.9507  -3.2210  -1.0283   0.2014
     2.0414   2.4672

          k = 0.1250 0.4571 0.0000 ( 20145 PWs)   bands (ev):

   -23.5534 -23.5267 -23.4960 -23.4003 -23.3744 -23.2980 -23.2864 -23.2642
   -23.1724 -23.0865 -10.0577  -7.9031  -4.0610  -3.0619  -1.2580   0.1703
     2.2187   2.5271

          k = 0.1250 0.5052 0.0000 ( 20141 PWs)   bands (ev):

   -23.5548 -23.5239 -23.5011 -23.3957 -23.3763 -23.2966 -23.2900 -23.2586
   -23.1774 -23.0831  -9.8610  -8.1842  -4.1352  -2.9148  -1.4540   0.1435
     2.2562   2.7146

          k = 0.1250 0.5533 0.0000 ( 20145 PWs)   bands (ev):

   -23.5554 -23.5218 -23.5045 -23.3925 -23.3783 -23.2952 -23.2927 -23.2548
   -23.1805 -23.0814  -9.7298  -8.3583  -4.1725  -2.8192  -1.5745   0.1284
     2.2518   2.9315

          k = 0.1667 0.2887 0.0000 ( 20113 PWs)   bands (ev):

   -23.5458 -23.5321 -23.4767 -23.4165 -23.3783 -23.3148 -23.2697 -23.2658
   -23.1583 -23.1042 -10.6803  -6.8016  -3.6506  -3.5080  -0.5194   0.4393
     1.1652   2.3787

          k = 0.1667 0.3368 0.0000 ( 20110 PWs)   bands (ev):

   -23.5499 -23.5308 -23.4828 -23.4118 -23.3708 -23.3098 -23.2757 -23.2693
   -23.1642 -23.0957 -10.5022  -7.1428  -3.8739  -3.3856  -0.7171   0.5969
     1.4194   2.4448

          k = 0.1667 0.3849 0.0000 ( 20115 PWs)   bands (ev):

   -23.5535 -23.5288 -23.4889 -23.4067 -23.3656 -23.3066 -23.2810 -23.2691
   -23.1710 -23.0883 -10.3036  -7.4879  -4.0638  -3.2343  -0.9429   0.6376
     1.7931   2.3716

          k = 0.1667 0.4330 0.0000 ( 20139 PWs)   bands (ev):

   -23.5564 -23.5263 -23.4948 -23.4013 -23.3633 -23.3048 -23.2858 -23.2653
   -23.1783 -23.0822 -10.0911  -7.8221  -4.2141  -3.0652  -1.1779   0.6371
     2.1600   2.2620

          k = 0.1667 0.4811 0.0000 ( 20145 PWs)   bands (ev):

   -23.5586 -23.5235 -23.5000 -23.3960 -23.3638 -23.3029 -23.2900 -23.2597
   -23.1854 -23.0777  -9.8789  -8.1253  -4.3224  -2.8942  -1.4002   0.6261
     2.1514   2.5060

          k = 0.1667 0.5292 0.0000 ( 20147 PWs)   bands (ev):

   -23.5599 -23.5208 -23.5041 -23.3917 -23.3658 -23.3004 -23.2938 -23.2546
   -23.1910 -23.0749  -9.7006  -8.3598  -4.3876  -2.7520  -1.5747   0.6160
     2.0900   2.7988

          k = 0.1667 0.5774 0.0000 ( 20135 PWs)   bands (ev):

   -23.5603 -23.5196 -23.5059 -23.3899 -23.3670 -23.2978 -23.2967 -23.2525
   -23.1931 -23.0739  -9.6241  -8.4552  -4.4094  -2.6923  -1.6455   0.6122
     2.0688   2.9652

          k = 0.2083 0.3608 0.0000 ( 20119 PWs)   bands (ev):

   -23.5543 -23.5286 -23.4885 -23.4071 -23.3618 -23.3096 -23.2807 -23.2691
   -23.1725 -23.0872 -10.3146  -7.4594  -4.1045  -3.2399  -0.9130   0.9300
     1.5405   2.4144

          k = 0.2083 0.4090 0.0000 ( 20133 PWs)   bands (ev):

   -23.5581 -23.5261 -23.4941 -23.4018 -23.3550 -23.3107 -23.2855 -23.2658
   -23.1816 -23.0799 -10.1083  -7.7767  -4.2984  -3.0700  -1.1325   1.0866
     1.8571   2.2426

          k = 0.2083 0.4571 0.0000 ( 20137 PWs)   bands (ev):

   -23.5611 -23.5233 -23.4993 -23.3962 -23.3518 -23.3106 -23.2900 -23.2604
   -23.1907 -23.0741  -9.8916  -8.0813  -4.4471  -2.8876  -1.3577   1.1326
     2.0687   2.2815

          k = 0.2083 0.5052 0.0000 ( 20163 PWs)   bands (ev):

   -23.5632 -23.5204 -23.5037 -23.3912 -23.3522 -23.3079 -23.2945 -23.2547
   -23.1990 -23.0701  -9.6837  -8.3499  -4.5474  -2.7125  -1.5640   1.1481
     1.9615   2.6517

          k = 0.2083 0.5533 0.0000 ( 20157 PWs)   bands (ev):

   -23.5643 -23.5183 -23.5066 -23.3880 -23.3537 -23.3037 -23.2990 -23.2506
   -23.2043 -23.0681  -9.5354  -8.5293  -4.5978  -2.5894  -1.7036   1.1540
     1.9021   2.9401

          k = 0.2500 0.4330 0.0000 ( 20149 PWs)   bands (ev):

   -23.5620 -23.5232 -23.4990 -23.3963 -23.3458 -23.3151 -23.2900 -23.2607
   -23.1926 -23.0729  -9.8961  -8.0649  -4.4909  -2.8863  -1.3417   1.4518
     2.0253   2.0868

          k = 0.2500 0.4811 0.0000 ( 20153 PWs)   bands (ev):

   -23.5650 -23.5203 -23.5034 -23.3910 -23.3405 -23.3162 -23.2948 -23.2548
   -23.2032 -23.0676  -9.6763  -8.3409  -4.6324  -2.6949  -1.5542   1.6115
     1.9411   2.3946

          k = 0.2500 0.5292 0.0000 ( 20133 PWs)   bands (ev):

   -23.5669 -23.5176 -23.5069 -23.3868 -23.3401 -23.3123 -23.3002 -23.2491
   -23.2121 -23.0644  -9.4752  -8.5766  -4.7186  -2.5209  -1.7420   1.6775
     1.8277   2.7975

          k = 0.2500 0.5774 0.0000 ( 20123 PWs)   bands (ev):

   -23.5675 -23.5163 -23.5086 -23.3852 -23.3407 -23.3064 -23.3060 -23.2463
   -23.2160 -23.0633  -9.3768  -8.6866  -4.7475  -2.4371  -1.8307   1.7241
     1.7595   3.0120

          k = 0.2917 0.5052 0.0000 ( 20137 PWs)   bands (ev):

   -23.5678 -23.5175 -23.5070 -23.3864 -23.3309 -23.3197 -23.3006 -23.2485
   -23.2150 -23.0631  -9.4537  -8.5930  -4.7603  -2.4966  -1.7556   1.7272
     2.1278   2.5605

          k = 0.2917 0.5533 0.0000 ( 20132 PWs)   bands (ev):

   -23.5692 -23.5150 -23.5098 -23.3837 -23.3281 -23.3154 -23.3076 -23.2424
   -23.2240 -23.0608  -9.2568  -8.8046  -4.8253  -2.3237  -1.9302   1.6837
     2.2641   2.8565

          k = 0.3333 0.5774 0.0000 ( 20133 PWs)   bands (ev):

   -23.5700 -23.5125 -23.5124 -23.3826 -23.3186 -23.3160 -23.3160 -23.2342
   -23.2342 -23.0596  -9.0322  -9.0322  -4.8616  -2.1254  -2.1253   1.6506
     2.6931   2.6931

     the Fermi energy is    -2.2780 ev

!    total energy              =    -326.41784261 Ry
     estimated scf accuracy    <       0.00000030 Ry
     smearing contrib. (-TS)   =       0.00251363 Ry
     internal energy E=F+TS    =    -326.42035624 Ry

     The total energy is F=E-TS. E is the sum of the following terms:
     one-electron contribution =    -856.46846631 Ry
     hartree contribution      =     435.93419002 Ry
     xc contribution           =     -95.00754528 Ry
     ewald contribution        =     189.12146532 Ry

     convergence has been achieved in   7 iterations

     Writing output data file ../tmp/stanene.save/

     init_run     :      6.25s CPU      6.59s WALL (       1 calls)
     electrons    :    118.81s CPU    123.32s WALL (       1 calls)

     Called by init_run:
     wfcinit      :      4.85s CPU      5.04s WALL (       1 calls)
     potinit      :      0.39s CPU      0.41s WALL (       1 calls)
     hinit0       :      0.60s CPU      0.60s WALL (       1 calls)

     Called by electrons:
     c_bands      :    101.68s CPU    104.25s WALL (       7 calls)
     sum_band     :     13.34s CPU     14.53s WALL (       7 calls)
     v_of_rho     :      1.48s CPU      1.58s WALL (       8 calls)
     newd         :      2.37s CPU      3.13s WALL (       8 calls)
     mix_rho      :      0.22s CPU      0.23s WALL (       7 calls)

     Called by c_bands:
     init_us_2    :      0.82s CPU      0.83s WALL (     915 calls)
     cegterg      :     98.48s CPU    101.02s WALL (     427 calls)

     Called by *egterg:
     cdiaghg      :      1.57s CPU      1.59s WALL (    2340 calls)
     h_psi        :     62.58s CPU     65.08s WALL (    2401 calls)
     s_psi        :      4.59s CPU      4.62s WALL (    2401 calls)
     g_psi        :      0.43s CPU      0.43s WALL (    1913 calls)

     Called by h_psi:
     h_psi:calbec :      7.79s CPU      7.96s WALL (    2401 calls)
     vloc_psi     :     49.87s CPU     52.14s WALL (    2401 calls)
     add_vuspsi   :      4.66s CPU      4.72s WALL (    2401 calls)

     General routines
     calbec       :     10.04s CPU     10.28s WALL (    2828 calls)
     fft          :      1.83s CPU      1.88s WALL (     102 calls)
     ffts         :      0.05s CPU      0.05s WALL (      15 calls)
     fftw         :     52.37s CPU     54.62s WALL (   54844 calls)
     interpolate  :      0.15s CPU      0.15s WALL (       8 calls)

     Parallel routines
     fft_scatt_xy :      4.83s CPU      5.12s WALL (   54961 calls)
     fft_scatt_yz :     28.13s CPU     29.10s WALL (   54961 calls)

     PWSCF        :   2m 5.30s CPU   2m10.40s WALL


   This run was terminated on:  23:30:56  23Jan2024            

=------------------------------------------------------------------------------=
   JOB DONE.
=------------------------------------------------------------------------------=
