
     Program PWSCF v.6.7MaX starts on 23Jan2024 at 23:20:12 

     This program is part of the open-source Quantum ESPRESSO suite
     for quantum simulation of materials; please cite
         "P. Giannozzi et al., J. Phys.:Condens. Matter 21 395502 (2009);
         "P. Giannozzi et al., J. Phys.:Condens. Matter 29 465901 (2017);
          URL http://www.quantum-espresso.org", 
     in publications or presentations arising from this work. More details at
     http://www.quantum-espresso.org/quote

     Parallel version (MPI), running on     6 processors

     MPI processes distributed on     1 nodes
     R & G space division:  proc/nbgrp/npool/nimage =       6
     Waiting for input...
     Reading input from standard input

     Current dimensions of program PWSCF are:
     Max number of different atomic species (ntypx) = 10
     Max number of k-points (npk) =  40000
     Max angular momentum in pseudopotentials (lmaxx) =  3

     Subspace diagonalization in iterative solution of the eigenvalue problem:
     one sub-group per band group will be used
     scalapack distributed-memory algorithm (size of sub-group:  2*  2 procs)


     Parallelization info
     --------------------
     sticks:   dense  smooth     PW     G-vecs:    dense   smooth      PW
     Min         431     214     61                75909    26818    4015
     Max         432     215     62                75924    26841    4025
     Sum        2587    1285    367               455489   160939   24117



     bravais-lattice index     =            4
     lattice parameter (alat)  =       8.8506  a.u.
     unit-cell volume          =    2563.9136 (a.u.)^3
     number of atoms/cell      =            2
     number of atomic types    =            1
     number of electrons       =        28.00
     number of Kohn-Sham states=           18
     kinetic-energy cutoff     =      60.0000  Ry
     charge density cutoff     =     480.0000  Ry
     scf convergence threshold =      1.0E-06
     mixing beta               =       0.7000
     number of iterations used =            8  plain     mixing
     Exchange-correlation= SLA  PW   PBE  PBE
                           (   1   4   3   4   0   0   0)

     celldm(1)=   8.850584  celldm(2)=   0.000000  celldm(3)=   4.270286
     celldm(4)=   0.000000  celldm(5)=   0.000000  celldm(6)=   0.000000

     crystal axes: (cart. coord. in units of alat)
               a(1) = (   1.000000   0.000000   0.000000 )  
               a(2) = (  -0.500000   0.866025   0.000000 )  
               a(3) = (   0.000000   0.000000   4.270286 )  

     reciprocal axes: (cart. coord. in units 2 pi/alat)
               b(1) = (  1.000000  0.577350 -0.000000 )  
               b(2) = (  0.000000  1.154701  0.000000 )  
               b(3) = (  0.000000 -0.000000  0.234176 )  


     PseudoPot. # 1 for Sn read from file:
     ../pseudo/Sn_pbe_v1.uspp.F.UPF
     MD5 check sum: 4cf58ce39ec5d5d420df3dd08604eb00
     Pseudo is Ultrasoft + core correction, Zval = 14.0
     Generated by new atomic code, or converted to UPF format
     Using radial grid of  891 points,  6 beta functions with: 
                l(1) =   0
                l(2) =   0
                l(3) =   1
                l(4) =   1
                l(5) =   2
                l(6) =   2
     Q(r) pseudized with  6 coefficients,  rinner =    1.200   1.200   1.200
                                                       1.200   1.200

     atomic species   valence    mass     pseudopotential
        Sn            14.00   118.71000     Sn( 1.00)

      6 Sym. Ops. (no inversion) found



   Cartesian axes

     site n.     atom                  positions (alat units)
         1           Sn  tau(   1) = (   0.0000000   0.5773503   2.1351428  )
         2           Sn  tau(   2) = (   0.5000000   0.2886751   1.9552503  )

     number of k points=    61  Marzari-Vanderbilt smearing, width (Ry)=  0.0050
                       cart. coord. in units 2pi/alat
        k(    1) = (   0.0000000   0.0000000   0.0000000), wk =   0.0034722
        k(    2) = (   0.0000000   0.0481125   0.0000000), wk =   0.0208333
        k(    3) = (   0.0000000   0.0962250   0.0000000), wk =   0.0208333
        k(    4) = (   0.0000000   0.1443376   0.0000000), wk =   0.0208333
        k(    5) = (   0.0000000   0.1924501   0.0000000), wk =   0.0208333
        k(    6) = (   0.0000000   0.2405626   0.0000000), wk =   0.0208333
        k(    7) = (   0.0000000   0.2886751   0.0000000), wk =   0.0208333
        k(    8) = (   0.0000000   0.3367877   0.0000000), wk =   0.0208333
        k(    9) = (   0.0000000   0.3849002   0.0000000), wk =   0.0208333
        k(   10) = (   0.0000000   0.4330127   0.0000000), wk =   0.0208333
        k(   11) = (   0.0000000   0.4811252   0.0000000), wk =   0.0208333
        k(   12) = (   0.0000000   0.5292377   0.0000000), wk =   0.0208333
        k(   13) = (   0.0000000  -0.5773503   0.0000000), wk =   0.0104167
        k(   14) = (   0.0416667   0.0721688   0.0000000), wk =   0.0208333
        k(   15) = (   0.0416667   0.1202813   0.0000000), wk =   0.0416667
        k(   16) = (   0.0416667   0.1683938   0.0000000), wk =   0.0416667
        k(   17) = (   0.0416667   0.2165064   0.0000000), wk =   0.0416667
        k(   18) = (   0.0416667   0.2646189   0.0000000), wk =   0.0416667
        k(   19) = (   0.0416667   0.3127314   0.0000000), wk =   0.0416667
        k(   20) = (   0.0416667   0.3608439   0.0000000), wk =   0.0416667
        k(   21) = (   0.0416667   0.4089564   0.0000000), wk =   0.0416667
        k(   22) = (   0.0416667   0.4570690   0.0000000), wk =   0.0416667
        k(   23) = (   0.0416667   0.5051815   0.0000000), wk =   0.0416667
        k(   24) = (   0.0416667   0.5532940   0.0000000), wk =   0.0416667
        k(   25) = (   0.0833333   0.1443376   0.0000000), wk =   0.0208333
        k(   26) = (   0.0833333   0.1924501   0.0000000), wk =   0.0416667
        k(   27) = (   0.0833333   0.2405626   0.0000000), wk =   0.0416667
        k(   28) = (   0.0833333   0.2886751   0.0000000), wk =   0.0416667
        k(   29) = (   0.0833333   0.3367877   0.0000000), wk =   0.0416667
        k(   30) = (   0.0833333   0.3849002   0.0000000), wk =   0.0416667
        k(   31) = (   0.0833333   0.4330127   0.0000000), wk =   0.0416667
        k(   32) = (   0.0833333   0.4811252   0.0000000), wk =   0.0416667
        k(   33) = (   0.0833333   0.5292377   0.0000000), wk =   0.0416667
        k(   34) = (   0.0833333   0.5773503   0.0000000), wk =   0.0208333
        k(   35) = (   0.1250000   0.2165064   0.0000000), wk =   0.0208333
        k(   36) = (   0.1250000   0.2646189   0.0000000), wk =   0.0416667
        k(   37) = (   0.1250000   0.3127314   0.0000000), wk =   0.0416667
        k(   38) = (   0.1250000   0.3608439   0.0000000), wk =   0.0416667
        k(   39) = (   0.1250000   0.4089564   0.0000000), wk =   0.0416667
        k(   40) = (   0.1250000   0.4570690   0.0000000), wk =   0.0416667
        k(   41) = (   0.1250000   0.5051815   0.0000000), wk =   0.0416667
        k(   42) = (   0.1250000   0.5532940   0.0000000), wk =   0.0416667
        k(   43) = (   0.1666667   0.2886751   0.0000000), wk =   0.0208333
        k(   44) = (   0.1666667   0.3367877   0.0000000), wk =   0.0416667
        k(   45) = (   0.1666667   0.3849002   0.0000000), wk =   0.0416667
        k(   46) = (   0.1666667   0.4330127   0.0000000), wk =   0.0416667
        k(   47) = (   0.1666667   0.4811252   0.0000000), wk =   0.0416667
        k(   48) = (   0.1666667   0.5292377   0.0000000), wk =   0.0416667
        k(   49) = (   0.1666667   0.5773503   0.0000000), wk =   0.0208333
        k(   50) = (   0.2083333   0.3608439   0.0000000), wk =   0.0208333
        k(   51) = (   0.2083333   0.4089564   0.0000000), wk =   0.0416667
        k(   52) = (   0.2083333   0.4570690   0.0000000), wk =   0.0416667
        k(   53) = (   0.2083333   0.5051815   0.0000000), wk =   0.0416667
        k(   54) = (   0.2083333   0.5532940   0.0000000), wk =   0.0416667
        k(   55) = (   0.2500000   0.4330127   0.0000000), wk =   0.0208333
        k(   56) = (   0.2500000   0.4811252   0.0000000), wk =   0.0416667
        k(   57) = (   0.2500000   0.5292377   0.0000000), wk =   0.0416667
        k(   58) = (   0.2500000   0.5773503   0.0000000), wk =   0.0208333
        k(   59) = (   0.2916667   0.5051815   0.0000000), wk =   0.0208333
        k(   60) = (   0.2916667   0.5532940   0.0000000), wk =   0.0416667
        k(   61) = (   0.3333333   0.5773503   0.0000000), wk =   0.0069444

     Dense  grid:   455489 G-vectors     FFT dimensions: (  64,  64, 270)

     Smooth grid:   160939 G-vectors     FFT dimensions: (  45,  45, 192)

     Estimated max dynamical RAM per process >     322.30 MB

     Estimated total dynamical RAM >       1.89 GB

     Initial potential from superposition of free atoms

     starting charge   25.99991, renormalised to   28.00000

     negative rho (up, down):  5.949E-04 0.000E+00
     Starting wfcs are   18 randomized atomic wfcs

     total cpu time spent up to now is        6.0 secs

     Self-consistent Calculation

     iteration #  1     ecut=    60.00 Ry     beta= 0.70
     Davidson diagonalization with overlap
     ethr =  1.00E-02,  avg # of iterations =  8.8

     negative rho (up, down):  2.941E-05 0.000E+00

     total cpu time spent up to now is       26.5 secs

     total energy              =    -325.45753968 Ry
     estimated scf accuracy    <       2.46826909 Ry

     iteration #  2     ecut=    60.00 Ry     beta= 0.70
     Davidson diagonalization with overlap
     ethr =  8.82E-03,  avg # of iterations =  2.1

     negative rho (up, down):  4.268E-05 0.000E+00

     total cpu time spent up to now is       43.9 secs

     total energy              =    -326.35866592 Ry
     estimated scf accuracy    <       0.38191335 Ry

     iteration #  3     ecut=    60.00 Ry     beta= 0.70
     Davidson diagonalization with overlap
     ethr =  1.36E-03,  avg # of iterations =  2.2

     negative rho (up, down):  6.387E-05 0.000E+00

     total cpu time spent up to now is       61.3 secs

     total energy              =    -326.41658765 Ry
     estimated scf accuracy    <       0.00624704 Ry

     iteration #  4     ecut=    60.00 Ry     beta= 0.70
     Davidson diagonalization with overlap
     c_bands:  1 eigenvalues not converged
     ethr =  2.23E-05,  avg # of iterations =  8.4

     negative rho (up, down):  8.172E-05 0.000E+00

     total cpu time spent up to now is       82.2 secs

     total energy              =    -326.41862900 Ry
     estimated scf accuracy    <       0.00035454 Ry

     iteration #  5     ecut=    60.00 Ry     beta= 0.70
     Davidson diagonalization with overlap
     ethr =  1.27E-06,  avg # of iterations =  5.2

     negative rho (up, down):  8.309E-05 0.000E+00

     total cpu time spent up to now is      101.5 secs

     total energy              =    -326.41866906 Ry
     estimated scf accuracy    <       0.00003740 Ry

     iteration #  6     ecut=    60.00 Ry     beta= 0.70
     Davidson diagonalization with overlap
     ethr =  1.34E-07,  avg # of iterations =  2.2

     negative rho (up, down):  8.497E-05 0.000E+00

     total cpu time spent up to now is      114.3 secs

     total energy              =    -326.41867726 Ry
     estimated scf accuracy    <       0.00001294 Ry

     iteration #  7     ecut=    60.00 Ry     beta= 0.70
     Davidson diagonalization with overlap
     ethr =  4.62E-08,  avg # of iterations =  2.0

     negative rho (up, down):  8.563E-05 0.000E+00

     total cpu time spent up to now is      128.6 secs

     End of self-consistent calculation

          k = 0.0000 0.0000 0.0000 ( 20025 PWs)   bands (ev):

   -23.5286 -23.5286 -23.4501 -23.4501 -23.4349 -23.3649 -23.2234 -23.2234
   -23.1677 -23.1677 -11.3744  -5.2748  -2.4049  -2.4049  -1.9450  -0.0651
     1.0905   1.0905

          k = 0.0000 0.0481 0.0000 ( 20035 PWs)   bands (ev):

   -23.5295 -23.5293 -23.4517 -23.4489 -23.4326 -23.3637 -23.2259 -23.2258
   -23.1664 -23.1654 -11.3596  -5.2979  -2.6940  -2.4374  -1.6376  -0.0640
     1.0605   1.1463

          k = 0.0000 0.0962 0.0000 ( 20005 PWs)   bands (ev):

   -23.5319 -23.5314 -23.4554 -23.4455 -23.4274 -23.3600 -23.2324 -23.2319
   -23.1631 -23.1596 -11.3156  -5.3757  -3.0806  -2.5279  -1.2018  -0.0640
     1.0053   1.3057

          k = 0.0000 0.1443 0.0000 ( 20065 PWs)   bands (ev):

   -23.5351 -23.5344 -23.4600 -23.4405 -23.4210 -23.3539 -23.2410 -23.2403
   -23.1594 -23.1520 -11.2425  -5.5287  -3.3903  -2.6597  -0.8379  -0.0739
     1.0096   1.5486

          k = 0.0000 0.1925 0.0000 ( 20113 PWs)   bands (ev):

   -23.5384 -23.5378 -23.4654 -23.4346 -23.4148 -23.3456 -23.2504 -23.2496
   -23.1561 -23.1439 -11.1408  -5.7729  -3.5852  -2.8137  -0.6372  -0.0971
     1.1545   2.1787

          k = 0.0000 0.2406 0.0000 ( 20071 PWs)   bands (ev):

   -23.5411 -23.5410 -23.4712 -23.4282 -23.4095 -23.3354 -23.2599 -23.2588
   -23.1539 -23.1359 -11.0114  -6.0992  -3.6655  -2.9742  -0.6242  -0.1264
     1.4140   2.2894

          k = 0.0000 0.2887 0.0000 ( 20087 PWs)   bands (ev):

   -23.5442 -23.5427 -23.4774 -23.4219 -23.4057 -23.3240 -23.2689 -23.2670
   -23.1531 -23.1285 -10.8558  -6.4778  -3.6559  -3.1291  -0.7291  -0.1749
     1.6509   2.4646

          k = 0.0000 0.3368 0.0000 ( 20109 PWs)   bands (ev):

   -23.5468 -23.5431 -23.4839 -23.4161 -23.4034 -23.3123 -23.2770 -23.2735
   -23.1538 -23.1219 -10.6763  -6.8779  -3.5846  -3.2703  -0.8827  -0.2557
     1.8055   2.6673

          k = 0.0000 0.3849 0.0000 ( 20145 PWs)   bands (ev):

   -23.5489 -23.5423 -23.4906 -23.4111 -23.4025 -23.3021 -23.2841 -23.2771
   -23.1556 -23.1163 -10.4772  -7.2749  -3.4747  -3.3917  -1.0526  -0.3604
     1.9371   2.8824

          k = 0.0000 0.4330 0.0000 ( 20161 PWs)   bands (ev):

   -23.5504 -23.5403 -23.4972 -23.4070 -23.4024 -23.2964 -23.2898 -23.2756
   -23.1584 -23.1118 -10.2668  -7.6483  -3.4896  -3.3459  -1.2232  -0.4683
     2.0855   3.1009

          k = 0.0000 0.4811 0.0000 ( 20157 PWs)   bands (ev):

   -23.5515 -23.5375 -23.5033 -23.4041 -23.4029 -23.2954 -23.2939 -23.2699
   -23.1613 -23.1085 -10.0616  -7.9740  -3.5612  -3.2196  -1.3781  -0.5586
     2.2503   3.2802

          k = 0.0000 0.5292 0.0000 ( 20142 PWs)   bands (ev):

   -23.5521 -23.5347 -23.5081 -23.4033 -23.4023 -23.2964 -23.2958 -23.2647
   -23.1637 -23.1065  -9.8963  -8.2131  -3.6048  -3.1229  -1.4921  -0.6171
     2.4002   3.3371

          k = 0.0000-0.5774 0.0000 ( 20152 PWs)   bands (ev):

   -23.5523 -23.5334 -23.5101 -23.4035 -23.4017 -23.2973 -23.2960 -23.2627
   -23.1646 -23.1058  -9.8288  -8.3054  -3.6194  -3.0859  -1.5352  -0.6372
     2.4676   3.3874

          k = 0.0417 0.0722 0.0000 ( 20017 PWs)   bands (ev):

   -23.5311 -23.5308 -23.4542 -23.4468 -23.4289 -23.3612 -23.2305 -23.2299
   -23.1643 -23.1612 -11.3303  -5.3484  -2.9800  -2.5032  -1.3118  -0.0635
     1.0083   1.2625

          k = 0.0417 0.1203 0.0000 ( 20039 PWs)   bands (ev):

   -23.5338 -23.5335 -23.4581 -23.4429 -23.4230 -23.3564 -23.2381 -23.2369
   -23.1612 -23.1544 -11.2717  -5.4641  -3.2874  -2.6243  -0.9304  -0.0693
     0.9548   1.4842

          k = 0.0417 0.1684 0.0000 ( 20081 PWs)   bands (ev):

   -23.5372 -23.5364 -23.4629 -23.4378 -23.4163 -23.3493 -23.2470 -23.2455
   -23.1581 -23.1463 -11.1843  -5.6644  -3.5154  -2.7783  -0.6349  -0.0905
     0.9934   1.7791

          k = 0.0417 0.2165 0.0000 ( 20075 PWs)   bands (ev):

   -23.5408 -23.5391 -23.4685 -23.4320 -23.4101 -23.3403 -23.2563 -23.2546
   -23.1559 -23.1381 -11.0687  -5.9520  -3.6365  -2.9452  -0.5215  -0.1163
     1.1836   2.0955

          k = 0.0417 0.2646 0.0000 ( 20107 PWs)   bands (ev):

   -23.5442 -23.5410 -23.4745 -23.4260 -23.4050 -23.3297 -23.2652 -23.2634
   -23.1549 -23.1302 -10.9260  -6.3057  -3.6621  -3.1097  -0.5849  -0.1388
     1.4622   2.2910

          k = 0.0417 0.3127 0.0000 ( 20105 PWs)   bands (ev):

   -23.5471 -23.5419 -23.4809 -23.4202 -23.4014 -23.3183 -23.2736 -23.2708
   -23.1552 -23.1230 -10.7581  -6.6947  -3.6199  -3.2587  -0.7342  -0.1856
     1.6999   2.4970

          k = 0.0417 0.3608 0.0000 ( 20127 PWs)   bands (ev):

   -23.5496 -23.5417 -23.4876 -23.4150 -23.3993 -23.3075 -23.2810 -23.2759
   -23.1569 -23.1167 -10.5682  -7.0923  -3.5505  -3.3683  -0.9147  -0.2624
     1.8658   2.7216

          k = 0.0417 0.4090 0.0000 ( 20135 PWs)   bands (ev):

   -23.5514 -23.5402 -23.4942 -23.4106 -23.3985 -23.2996 -23.2872 -23.2769
   -23.1596 -23.1114 -10.3619  -7.4772  -3.5628  -3.3442  -1.1041  -0.3537
     2.0152   2.9062

          k = 0.0417 0.4571 0.0000 ( 20146 PWs)   bands (ev):

   -23.5527 -23.5379 -23.5006 -23.4070 -23.3987 -23.2969 -23.2919 -23.2726
   -23.1629 -23.1074 -10.1509  -7.8285  -3.6330  -3.2266  -1.2862  -0.4394
     2.1744   3.0327

          k = 0.0417 0.5052 0.0000 ( 20148 PWs)   bands (ev):

   -23.5536 -23.5350 -23.5061 -23.4043 -23.3995 -23.2970 -23.2950 -23.2668
   -23.1660 -23.1047  -9.9591  -8.1164  -3.6879  -3.1108  -1.4384  -0.5038
     2.3300   3.1197

          k = 0.0417 0.5533 0.0000 ( 20150 PWs)   bands (ev):

   -23.5540 -23.5328 -23.5097 -23.4022 -23.4006 -23.2976 -23.2963 -23.2630
   -23.1679 -23.1033  -9.8342  -8.2901  -3.7164  -3.0382  -1.5289  -0.5380
     2.4358   3.2185

          k = 0.0833 0.1443 0.0000 ( 20061 PWs)   bands (ev):

   -23.5368 -23.5360 -23.4619 -23.4394 -23.4166 -23.3506 -23.2459 -23.2439
   -23.1593 -23.1468 -11.1988  -5.6283  -3.4801  -2.7824  -0.6072  -0.0910
     0.8970   1.7810

          k = 0.0833 0.1925 0.0000 ( 20087 PWs)   bands (ev):

   -23.5406 -23.5381 -23.4667 -23.4350 -23.4094 -23.3431 -23.2545 -23.2521
   -23.1580 -23.1384 -11.0974  -5.8754  -3.6020  -2.9694  -0.3516  -0.1326
     0.9328   2.2350

          k = 0.0833 0.2406 0.0000 ( 20121 PWs)   bands (ev):

   -23.5446 -23.5397 -23.4724 -23.4299 -23.4027 -23.3340 -23.2631 -23.2606
   -23.1577 -23.1299 -10.9683  -6.1936  -3.6432  -3.1589  -0.3490  -0.0983
     1.1289   2.2435

          k = 0.0833 0.2887 0.0000 ( 20106 PWs)   bands (ev):

   -23.5482 -23.5405 -23.4786 -23.4245 -23.3971 -23.3240 -23.2712 -23.2684
   -23.1587 -23.1219 -10.8130  -6.5580  -3.6233  -3.3283  -0.5111  -0.0608
     1.4311   2.3292

          k = 0.0833 0.3368 0.0000 ( 20114 PWs)   bands (ev):

   -23.5514 -23.5403 -23.4852 -23.4193 -23.3932 -23.3139 -23.2786 -23.2743
   -23.1609 -23.1146 -10.6338  -6.9427  -3.6105  -3.4183  -0.7160  -0.0763
     1.7205   2.4798

          k = 0.0833 0.3849 0.0000 ( 20126 PWs)   bands (ev):

   -23.5539 -23.5391 -23.4918 -23.4143 -23.3912 -23.3055 -23.2849 -23.2768
   -23.1642 -23.1084 -10.4347  -7.3266  -3.6972  -3.3478  -0.9368  -0.1224
     1.9401   2.6381

          k = 0.0833 0.4330 0.0000 ( 20149 PWs)   bands (ev):

   -23.5558 -23.5370 -23.4982 -23.4098 -23.3908 -23.3010 -23.2901 -23.2744
   -23.1683 -23.1034 -10.2236  -7.6903  -3.7973  -3.2159  -1.1568  -0.1788
     2.1165   2.7376

          k = 0.0833 0.4811 0.0000 ( 20151 PWs)   bands (ev):

   -23.5571 -23.5343 -23.5041 -23.4057 -23.3919 -23.2998 -23.2940 -23.2688
   -23.1725 -23.0997 -10.0167  -8.0105  -3.8742  -3.0766  -1.3559  -0.2296
     2.2630   2.8237

          k = 0.0833 0.5292 0.0000 ( 20157 PWs)   bands (ev):

   -23.5579 -23.5316 -23.5087 -23.4022 -23.3939 -23.2995 -23.2966 -23.2638
   -23.1757 -23.0974  -9.8485  -8.2483  -3.9217  -2.9649  -1.5034  -0.2640
     2.3564   2.9570

          k = 0.0833 0.5774 0.0000 ( 20154 PWs)   bands (ev):

   -23.5581 -23.5304 -23.5106 -23.4003 -23.3954 -23.2992 -23.2978 -23.2618
   -23.1770 -23.0967  -9.7792  -8.3410  -3.9377  -2.9205  -1.5598  -0.2761
     2.3856   3.0784

          k = 0.1250 0.2165 0.0000 ( 20099 PWs)   bands (ev):

   -23.5447 -23.5393 -23.4716 -23.4314 -23.4015 -23.3357 -23.2624 -23.2596
   -23.1590 -23.1296 -10.9825  -6.1545  -3.6285  -3.1915  -0.2311  -0.0515
     0.9345   2.2528

          k = 0.1250 0.2646 0.0000 ( 20119 PWs)   bands (ev):

   -23.5489 -23.5397 -23.4773 -23.4271 -23.3939 -23.3275 -23.2700 -23.2669
   -23.1611 -23.1209 -10.8406  -6.4840  -3.6011  -3.4075  -0.3750   0.1433
     1.0935   2.3044

          k = 0.1250 0.3127 0.0000 ( 20122 PWs)   bands (ev):

   -23.5528 -23.5394 -23.4835 -23.4222 -23.3876 -23.3193 -23.2770 -23.2730
   -23.1644 -23.1126 -10.6734  -6.8427  -3.6460  -3.4835  -0.5694   0.2154
     1.4032   2.3727

          k = 0.1250 0.3608 0.0000 ( 20112 PWs)   bands (ev):

   -23.5562 -23.5381 -23.4900 -23.4171 -23.3833 -23.3121 -23.2833 -23.2762
   -23.1688 -23.1053 -10.4838  -7.2117  -3.8132  -3.3716  -0.7944   0.2191
     1.7494   2.4394

          k = 0.1250 0.4090 0.0000 ( 20146 PWs)   bands (ev):

   -23.5589 -23.5362 -23.4964 -23.4120 -23.3813 -23.3073 -23.2887 -23.2752
   -23.1742 -23.0991 -10.2772  -7.5735  -3.9573  -3.2247  -1.0315   0.1954
     2.0397   2.4641

          k = 0.1250 0.4571 0.0000 ( 20145 PWs)   bands (ev):

   -23.5610 -23.5335 -23.5024 -23.4070 -23.3816 -23.3050 -23.2931 -23.2705
   -23.1798 -23.0942 -10.0640  -7.9092  -4.0676  -3.0655  -1.2612   0.1642
     2.2171   2.5245

          k = 0.1250 0.5052 0.0000 ( 20141 PWs)   bands (ev):

   -23.5623 -23.5307 -23.5075 -23.4025 -23.3835 -23.3036 -23.2967 -23.2649
   -23.1848 -23.0909  -9.8673  -8.1904  -4.1418  -2.9183  -1.4571   0.1374
     2.2541   2.7127

          k = 0.1250 0.5533 0.0000 ( 20145 PWs)   bands (ev):

   -23.5630 -23.5285 -23.5108 -23.3992 -23.3856 -23.3021 -23.2994 -23.2612
   -23.1879 -23.0892  -9.7361  -8.3645  -4.1791  -2.8227  -1.5776   0.1222
     2.2495   2.9297

          k = 0.1667 0.2887 0.0000 ( 20113 PWs)   bands (ev):

   -23.5533 -23.5391 -23.4830 -23.4232 -23.3853 -23.3215 -23.2765 -23.2725
   -23.1657 -23.1119 -10.6866  -6.8073  -3.6573  -3.5117  -0.5223   0.4329
     1.1610   2.3769

          k = 0.1667 0.3368 0.0000 ( 20110 PWs)   bands (ev):

   -23.5574 -23.5377 -23.4891 -23.4186 -23.3778 -23.3168 -23.2825 -23.2758
   -23.1716 -23.1034 -10.5086  -7.1486  -3.8806  -3.3892  -0.7201   0.5906
     1.4154   2.4425

          k = 0.1667 0.3849 0.0000 ( 20115 PWs)   bands (ev):

   -23.5611 -23.5356 -23.4952 -23.4134 -23.3726 -23.3138 -23.2878 -23.2754
   -23.1783 -23.0960 -10.3099  -7.4939  -4.0704  -3.2378  -0.9460   0.6315
     1.7899   2.3689

          k = 0.1667 0.4330 0.0000 ( 20139 PWs)   bands (ev):

   -23.5640 -23.5331 -23.5011 -23.4080 -23.3704 -23.3119 -23.2925 -23.2716
   -23.1857 -23.0900 -10.0974  -7.8282  -4.2208  -3.0686  -1.1811   0.6310
     2.1577   2.2589

          k = 0.1667 0.4811 0.0000 ( 20145 PWs)   bands (ev):

   -23.5662 -23.5302 -23.5064 -23.4027 -23.3710 -23.3100 -23.2967 -23.2660
   -23.1927 -23.0854  -9.8852  -8.1314  -4.3291  -2.8976  -1.4033   0.6199
     2.1489   2.5040

          k = 0.1667 0.5292 0.0000 ( 20147 PWs)   bands (ev):

   -23.5675 -23.5275 -23.5105 -23.3984 -23.3731 -23.3073 -23.3005 -23.2610
   -23.1983 -23.0827  -9.7069  -8.3660  -4.3943  -2.7554  -1.5778   0.6098
     2.0874   2.7972

          k = 0.1667 0.5774 0.0000 ( 20135 PWs)   bands (ev):

   -23.5679 -23.5263 -23.5122 -23.3966 -23.3743 -23.3048 -23.3035 -23.2589
   -23.2005 -23.0817  -9.6304  -8.4614  -4.4161  -2.6957  -1.6486   0.6059
     2.0662   2.9635

          k = 0.2083 0.3608 0.0000 ( 20119 PWs)   bands (ev):

   -23.5618 -23.5355 -23.4948 -23.4139 -23.3688 -23.3168 -23.2875 -23.2754
   -23.1798 -23.0950 -10.3209  -7.4654  -4.1112  -3.2434  -0.9160   0.9236
     1.5365   2.4117

          k = 0.2083 0.4090 0.0000 ( 20133 PWs)   bands (ev):

   -23.5657 -23.5328 -23.5005 -23.4085 -23.3620 -23.3180 -23.2922 -23.2720
   -23.1888 -23.0877 -10.1146  -7.7828  -4.3051  -3.0734  -1.1356   1.0804
     1.8535   2.2399

          k = 0.2083 0.4571 0.0000 ( 20137 PWs)   bands (ev):

   -23.5687 -23.5300 -23.5056 -23.4030 -23.3589 -23.3178 -23.2968 -23.2668
   -23.1980 -23.0819  -9.8979  -8.0874  -4.4538  -2.8909  -1.3608   1.1265
     2.0658   2.2788

          k = 0.2083 0.5052 0.0000 ( 20163 PWs)   bands (ev):

   -23.5709 -23.5271 -23.5100 -23.3979 -23.3595 -23.3150 -23.3013 -23.2610
   -23.2062 -23.0779  -9.6900  -8.3561  -4.5541  -2.7159  -1.5671   1.1419
     1.9588   2.6495

          k = 0.2083 0.5533 0.0000 ( 20157 PWs)   bands (ev):

   -23.5719 -23.5249 -23.5130 -23.3947 -23.3611 -23.3107 -23.3059 -23.2570
   -23.2115 -23.0759  -9.5417  -8.5355  -4.6044  -2.5927  -1.7067   1.1477
     1.8994   2.9383

          k = 0.2500 0.4330 0.0000 ( 20149 PWs)   bands (ev):

   -23.5696 -23.5299 -23.5054 -23.4030 -23.3528 -23.3225 -23.2968 -23.2670
   -23.1998 -23.0807  -9.9024  -8.0710  -4.4976  -2.8897  -1.3448   1.4458
     2.0215   2.0837

          k = 0.2500 0.4811 0.0000 ( 20153 PWs)   bands (ev):

   -23.5726 -23.5269 -23.5097 -23.3977 -23.3475 -23.3236 -23.3017 -23.2612
   -23.2104 -23.0754  -9.6826  -8.3471  -4.6391  -2.6982  -1.5574   1.6059
     1.9376   2.3909

          k = 0.2500 0.5292 0.0000 ( 20133 PWs)   bands (ev):

   -23.5745 -23.5242 -23.5133 -23.3935 -23.3473 -23.3195 -23.3071 -23.2555
   -23.2192 -23.0722  -9.4815  -8.5828  -4.7253  -2.5242  -1.7452   1.6721
     1.8241   2.7947

          k = 0.2500 0.5774 0.0000 ( 20123 PWs)   bands (ev):

   -23.5752 -23.5228 -23.5150 -23.3918 -23.3480 -23.3134 -23.3131 -23.2528
   -23.2230 -23.0711  -9.3831  -8.6929  -4.7542  -2.4404  -1.8338   1.7178
     1.7568   3.0090

          k = 0.2917 0.5052 0.0000 ( 20137 PWs)   bands (ev):

   -23.5754 -23.5240 -23.5134 -23.3931 -23.3379 -23.3271 -23.3075 -23.2549
   -23.2220 -23.0709  -9.4600  -8.5992  -4.7669  -2.4999  -1.7588   1.7242
     2.1217   2.5562

          k = 0.2917 0.5533 0.0000 ( 20132 PWs)   bands (ev):

   -23.5769 -23.5215 -23.5162 -23.3903 -23.3353 -23.3226 -23.3146 -23.2489
   -23.2309 -23.0686  -9.2631  -8.8108  -4.8320  -2.3269  -1.9334   1.6810
     2.2578   2.8518

          k = 0.3333 0.5774 0.0000 ( 20133 PWs)   bands (ev):

   -23.5777 -23.5189 -23.5189 -23.3892 -23.3254 -23.3234 -23.3233 -23.2409
   -23.2409 -23.0674  -9.0385  -9.0384  -4.8682  -2.1286  -2.1286   1.6479
     2.6872   2.6873

     the Fermi energy is    -2.1194 ev

!    total energy              =    -326.41867898 Ry
     estimated scf accuracy    <       0.00000073 Ry
     smearing contrib. (-TS)   =      -0.00001063 Ry
     internal energy E=F+TS    =    -326.41866835 Ry

     The total energy is F=E-TS. E is the sum of the following terms:
     one-electron contribution =    -856.46053872 Ry
     hartree contribution      =     435.92862687 Ry
     xc contribution           =     -95.00822183 Ry
     ewald contribution        =     189.12146532 Ry

     convergence has been achieved in   7 iterations

     Writing output data file ../tmp/stanene.save/

     init_run     :      5.60s CPU      5.88s WALL (       1 calls)
     electrons    :    117.47s CPU    122.66s WALL (       1 calls)

     Called by init_run:
     wfcinit      :      4.39s CPU      4.54s WALL (       1 calls)
     potinit      :      0.39s CPU      0.42s WALL (       1 calls)
     hinit0       :      0.37s CPU      0.38s WALL (       1 calls)

     Called by electrons:
     c_bands      :    100.94s CPU    104.27s WALL (       7 calls)
     sum_band     :     12.98s CPU     14.21s WALL (       7 calls)
     v_of_rho     :      1.37s CPU      1.48s WALL (       8 calls)
     newd         :      2.24s CPU      2.86s WALL (       8 calls)
     mix_rho      :      0.21s CPU      0.21s WALL (       7 calls)

     Called by c_bands:
     init_us_2    :      0.85s CPU      0.86s WALL (     915 calls)
     cegterg      :     97.63s CPU    100.95s WALL (     427 calls)

     Called by *egterg:
     cdiaghg      :      1.46s CPU      1.48s WALL (    2302 calls)
     h_psi        :     60.82s CPU     64.03s WALL (    2363 calls)
     s_psi        :      4.69s CPU      4.72s WALL (    2363 calls)
     g_psi        :      0.44s CPU      0.44s WALL (    1875 calls)

     Called by h_psi:
     h_psi:calbec :      7.83s CPU      8.07s WALL (    2363 calls)
     vloc_psi     :     47.96s CPU     50.84s WALL (    2363 calls)
     add_vuspsi   :      4.78s CPU      4.86s WALL (    2363 calls)

     General routines
     calbec       :     10.04s CPU     10.38s WALL (    2790 calls)
     fft          :      1.53s CPU      1.59s WALL (     102 calls)
     ffts         :      0.04s CPU      0.04s WALL (      15 calls)
     fftw         :     50.04s CPU     52.83s WALL (   54614 calls)
     interpolate  :      0.16s CPU      0.16s WALL (       8 calls)

     Parallel routines
     fft_scatt_xy :      4.69s CPU      5.10s WALL (   54731 calls)
     fft_scatt_yz :     25.83s CPU     26.81s WALL (   54731 calls)

     PWSCF        :   2m 3.24s CPU   2m 9.02s WALL


   This run was terminated on:  23:22:21  23Jan2024            

=------------------------------------------------------------------------------=
   JOB DONE.
=------------------------------------------------------------------------------=
