
     Program PWSCF v.7.2 starts on 22Jun2024 at 22:24:11 

     This program is part of the open-source Quantum ESPRESSO suite
     for quantum simulation of materials; please cite
         "P. Giannozzi et al., J. Phys.:Condens. Matter 21 395502 (2009);
         "P. Giannozzi et al., J. Phys.:Condens. Matter 29 465901 (2017);
         "P. Giannozzi et al., J. Chem. Phys. 152 154105 (2020);
          URL http://www.quantum-espresso.org", 
     in publications or presentations arising from this work. More details at
     http://www.quantum-espresso.org/quote

     Parallel version (MPI), running on     6 processors

     MPI processes distributed on     1 nodes
     5498 MiB available memory on the printing compute node when the environment starts

     Waiting for input...
     Reading input from standard input

     Current dimensions of program PWSCF are:
     Max number of different atomic species (ntypx) = 10
     Max number of k-points (npk) =  40000
     Max angular momentum in pseudopotentials (lmaxx) =  4

     R & G space division:  proc/nbgrp/npool/nimage =       6
     Subspace diagonalization in iterative solution of the eigenvalue problem:
     a serial algorithm will be used


     Parallelization info
     --------------------
     sticks:   dense  smooth     PW     G-vecs:    dense   smooth      PW
     Min         431     214     61                75773    26776    4007
     Max         432     215     62                75788    26799    4017
     Sum        2587    1285    367               454685   160699   24069

     Using Slab Decomposition



     bravais-lattice index     =            4
     lattice parameter (alat)  =       8.8439  a.u.
     unit-cell volume          =    2560.0529 (a.u.)^3
     number of atoms/cell      =            2
     number of atomic types    =            1
     number of electrons       =        28.00
     number of Kohn-Sham states=           16
     kinetic-energy cutoff     =      60.0000  Ry
     charge density cutoff     =     480.0000  Ry
     scf convergence threshold =      1.0E-07
     mixing beta               =       0.7000
     number of iterations used =            8  plain     mixing
     Exchange-correlation= SLA  PW   PSX  PSC
                           (   1   4  10   8   0   0   0)

     celldm(1)=   8.843918  celldm(2)=   0.000000  celldm(3)=   4.273504
     celldm(4)=   0.000000  celldm(5)=   0.000000  celldm(6)=   0.000000

     crystal axes: (cart. coord. in units of alat)
               a(1) = (   1.000000   0.000000   0.000000 )  
               a(2) = (  -0.500000   0.866025   0.000000 )  
               a(3) = (   0.000000   0.000000   4.273504 )  

     reciprocal axes: (cart. coord. in units 2 pi/alat)
               b(1) = (  1.000000  0.577350 -0.000000 )  
               b(2) = (  0.000000  1.154701  0.000000 )  
               b(3) = (  0.000000 -0.000000  0.234000 )  


     PseudoPot. # 1 for Sn read from file:
     ../pseudo/sn_pbesol_v1.4.uspp.F.UPF
     MD5 check sum: 463fec1d5456f1e96ec1bfcad4b7b038
     Pseudo is Ultrasoft + core correction, Zval = 14.0
     Generated by new atomic code, or converted to UPF format
     Using radial grid of  891 points,  6 beta functions with: 
                l(1) =   0
                l(2) =   0
                l(3) =   1
                l(4) =   1
                l(5) =   2
                l(6) =   2
     Q(r) pseudized with  8 coefficients,  rinner =    1.350   1.350   1.350
                                                       1.350   1.350

     atomic species   valence    mass     pseudopotential
        Sn            14.00   118.71000     Sn( 1.00)

     24 Sym. Ops., with inversion, found


                                    s                        frac. trans.

      isym =  1     identity                                     

 cryst.   s( 1) = (     1          0          0      )
                  (     0          1          0      )
                  (     0          0          1      )

 cart.    s( 1) = (  1.0000000  0.0000000  0.0000000 )
                  (  0.0000000  1.0000000  0.0000000 )
                  (  0.0000000  0.0000000  1.0000000 )


      isym =  2     180 deg rotation - cart. axis [0,0,1]        

 cryst.   s( 2) = (    -1          0          0      )
                  (     0         -1          0      )
                  (     0          0          1      )

 cart.    s( 2) = ( -1.0000000  0.0000000  0.0000000 )
                  (  0.0000000 -1.0000000  0.0000000 )
                  (  0.0000000  0.0000000  1.0000000 )


      isym =  3     180 deg rotation - cart. axis [0,1,0]        

 cryst.   s( 3) = (    -1          0          0      )
                  (     1          1          0      )
                  (     0          0         -1      )

 cart.    s( 3) = ( -1.0000000  0.0000000  0.0000000 )
                  (  0.0000000  1.0000000  0.0000000 )
                  (  0.0000000  0.0000000 -1.0000000 )


      isym =  4     180 deg rotation - cart. axis [1,0,0]        

 cryst.   s( 4) = (     1          0          0      )
                  (    -1         -1          0      )
                  (     0          0         -1      )

 cart.    s( 4) = (  1.0000000  0.0000000  0.0000000 )
                  (  0.0000000 -1.0000000  0.0000000 )
                  (  0.0000000  0.0000000 -1.0000000 )


      isym =  5      60 deg rotation - cryst. axis [0,0,1]       

 cryst.   s( 5) = (     1          1          0      )
                  (    -1          0          0      )
                  (     0          0          1      )

 cart.    s( 5) = (  0.5000000 -0.8660254  0.0000000 )
                  (  0.8660254  0.5000000  0.0000000 )
                  (  0.0000000  0.0000000  1.0000000 )


      isym =  6      60 deg rotation - cryst. axis [0,0,-1]      

 cryst.   s( 6) = (     0         -1          0      )
                  (     1          1          0      )
                  (     0          0          1      )

 cart.    s( 6) = (  0.5000000  0.8660254  0.0000000 )
                  ( -0.8660254  0.5000000  0.0000000 )
                  (  0.0000000  0.0000000  1.0000000 )


      isym =  7     120 deg rotation - cryst. axis [0,0,1]       

 cryst.   s( 7) = (     0          1          0      )
                  (    -1         -1          0      )
                  (     0          0          1      )

 cart.    s( 7) = ( -0.5000000 -0.8660254  0.0000000 )
                  (  0.8660254 -0.5000000  0.0000000 )
                  (  0.0000000  0.0000000  1.0000000 )


      isym =  8     120 deg rotation - cryst. axis [0,0,-1]      

 cryst.   s( 8) = (    -1         -1          0      )
                  (     1          0          0      )
                  (     0          0          1      )

 cart.    s( 8) = ( -0.5000000  0.8660254  0.0000000 )
                  ( -0.8660254 -0.5000000  0.0000000 )
                  (  0.0000000  0.0000000  1.0000000 )


      isym =  9     180 deg rotation - cryst. axis [1,-1,0]      

 cryst.   s( 9) = (     0         -1          0      )
                  (    -1          0          0      )
                  (     0          0         -1      )

 cart.    s( 9) = (  0.5000000 -0.8660254  0.0000000 )
                  ( -0.8660254 -0.5000000  0.0000000 )
                  (  0.0000000  0.0000000 -1.0000000 )


      isym = 10     180 deg rotation - cryst. axis [2,1,0]       

 cryst.   s(10) = (     1          1          0      )
                  (     0         -1          0      )
                  (     0          0         -1      )

 cart.    s(10) = (  0.5000000  0.8660254  0.0000000 )
                  (  0.8660254 -0.5000000  0.0000000 )
                  (  0.0000000  0.0000000 -1.0000000 )


      isym = 11     180 deg rotation - cryst. axis [0,1,0]       

 cryst.   s(11) = (    -1         -1          0      )
                  (     0          1          0      )
                  (     0          0         -1      )

 cart.    s(11) = ( -0.5000000 -0.8660254  0.0000000 )
                  ( -0.8660254  0.5000000  0.0000000 )
                  (  0.0000000  0.0000000 -1.0000000 )


      isym = 12     180 deg rotation - cryst. axis [1,1,0]       

 cryst.   s(12) = (     0          1          0      )
                  (     1          0          0      )
                  (     0          0         -1      )

 cart.    s(12) = ( -0.5000000  0.8660254  0.0000000 )
                  (  0.8660254  0.5000000  0.0000000 )
                  (  0.0000000  0.0000000 -1.0000000 )


      isym = 13     inversion                                    

 cryst.   s(13) = (    -1          0          0      )
                  (     0         -1          0      )
                  (     0          0         -1      )

 cart.    s(13) = ( -1.0000000  0.0000000  0.0000000 )
                  (  0.0000000 -1.0000000  0.0000000 )
                  (  0.0000000  0.0000000 -1.0000000 )


      isym = 14     inv. 180 deg rotation - cart. axis [0,0,1]   

 cryst.   s(14) = (     1          0          0      )
                  (     0          1          0      )
                  (     0          0         -1      )

 cart.    s(14) = (  1.0000000  0.0000000  0.0000000 )
                  (  0.0000000  1.0000000  0.0000000 )
                  (  0.0000000  0.0000000 -1.0000000 )


      isym = 15     inv. 180 deg rotation - cart. axis [0,1,0]   

 cryst.   s(15) = (     1          0          0      )
                  (    -1         -1          0      )
                  (     0          0          1      )

 cart.    s(15) = (  1.0000000  0.0000000  0.0000000 )
                  (  0.0000000 -1.0000000  0.0000000 )
                  (  0.0000000  0.0000000  1.0000000 )


      isym = 16     inv. 180 deg rotation - cart. axis [1,0,0]   

 cryst.   s(16) = (    -1          0          0      )
                  (     1          1          0      )
                  (     0          0          1      )

 cart.    s(16) = ( -1.0000000  0.0000000  0.0000000 )
                  (  0.0000000  1.0000000  0.0000000 )
                  (  0.0000000  0.0000000  1.0000000 )


      isym = 17     inv.  60 deg rotation - cryst. axis [0,0,1]  

 cryst.   s(17) = (    -1         -1          0      )
                  (     1          0          0      )
                  (     0          0         -1      )

 cart.    s(17) = ( -0.5000000  0.8660254  0.0000000 )
                  ( -0.8660254 -0.5000000  0.0000000 )
                  (  0.0000000  0.0000000 -1.0000000 )


      isym = 18     inv.  60 deg rotation - cryst. axis [0,0,-1] 

 cryst.   s(18) = (     0          1          0      )
                  (    -1         -1          0      )
                  (     0          0         -1      )

 cart.    s(18) = ( -0.5000000 -0.8660254  0.0000000 )
                  (  0.8660254 -0.5000000  0.0000000 )
                  (  0.0000000  0.0000000 -1.0000000 )


      isym = 19     inv. 120 deg rotation - cryst. axis [0,0,1]  

 cryst.   s(19) = (     0         -1          0      )
                  (     1          1          0      )
                  (     0          0         -1      )

 cart.    s(19) = (  0.5000000  0.8660254  0.0000000 )
                  ( -0.8660254  0.5000000  0.0000000 )
                  (  0.0000000  0.0000000 -1.0000000 )


      isym = 20     inv. 120 deg rotation - cryst. axis [0,0,-1] 

 cryst.   s(20) = (     1          1          0      )
                  (    -1          0          0      )
                  (     0          0         -1      )

 cart.    s(20) = (  0.5000000 -0.8660254  0.0000000 )
                  (  0.8660254  0.5000000  0.0000000 )
                  (  0.0000000  0.0000000 -1.0000000 )


      isym = 21     inv. 180 deg rotation - cryst. axis [1,-1,0] 

 cryst.   s(21) = (     0          1          0      )
                  (     1          0          0      )
                  (     0          0          1      )

 cart.    s(21) = ( -0.5000000  0.8660254  0.0000000 )
                  (  0.8660254  0.5000000  0.0000000 )
                  (  0.0000000  0.0000000  1.0000000 )


      isym = 22     inv. 180 deg rotation - cryst. axis [2,1,0]  

 cryst.   s(22) = (    -1         -1          0      )
                  (     0          1          0      )
                  (     0          0          1      )

 cart.    s(22) = ( -0.5000000 -0.8660254  0.0000000 )
                  ( -0.8660254  0.5000000  0.0000000 )
                  (  0.0000000  0.0000000  1.0000000 )


      isym = 23     inv. 180 deg rotation - cryst. axis [0,1,0]  

 cryst.   s(23) = (     1          1          0      )
                  (     0         -1          0      )
                  (     0          0          1      )

 cart.    s(23) = (  0.5000000  0.8660254  0.0000000 )
                  (  0.8660254 -0.5000000  0.0000000 )
                  (  0.0000000  0.0000000  1.0000000 )


      isym = 24     inv. 180 deg rotation - cryst. axis [1,1,0]  

 cryst.   s(24) = (     0         -1          0      )
                  (    -1          0          0      )
                  (     0          0          1      )

 cart.    s(24) = (  0.5000000 -0.8660254  0.0000000 )
                  ( -0.8660254 -0.5000000  0.0000000 )
                  (  0.0000000  0.0000000  1.0000000 )


     point group D_6h(6/mmm)
     there are 12 classes
     the character table:

       E     2C6   2C3   C2    3C2'  3C2'' i     2S3   2S6   s_h   3s_d  3s_v 
A_1g   1.00  1.00  1.00  1.00  1.00  1.00  1.00  1.00  1.00  1.00  1.00  1.00
A_2g   1.00  1.00  1.00  1.00 -1.00 -1.00  1.00  1.00  1.00  1.00 -1.00 -1.00
B_1g   1.00 -1.00  1.00 -1.00  1.00 -1.00  1.00 -1.00  1.00 -1.00  1.00 -1.00
B_2g   1.00 -1.00  1.00 -1.00 -1.00  1.00  1.00 -1.00  1.00 -1.00 -1.00  1.00
E_1g   2.00  1.00 -1.00 -2.00  0.00  0.00  2.00  1.00 -1.00 -2.00  0.00  0.00
E_2g   2.00 -1.00 -1.00  2.00  0.00  0.00  2.00 -1.00 -1.00  2.00  0.00  0.00
A_1u   1.00  1.00  1.00  1.00  1.00  1.00 -1.00 -1.00 -1.00 -1.00 -1.00 -1.00
A_2u   1.00  1.00  1.00  1.00 -1.00 -1.00 -1.00 -1.00 -1.00 -1.00  1.00  1.00
B_1u   1.00 -1.00  1.00 -1.00  1.00 -1.00 -1.00  1.00 -1.00  1.00 -1.00  1.00
B_2u   1.00 -1.00  1.00 -1.00 -1.00  1.00 -1.00  1.00 -1.00  1.00  1.00 -1.00
E_1u   2.00  1.00 -1.00 -2.00  0.00  0.00 -2.00 -1.00  1.00  2.00  0.00  0.00
E_2u   2.00 -1.00 -1.00  2.00  0.00  0.00 -2.00  1.00  1.00 -2.00  0.00  0.00

     the symmetry operations in each class and the name of the first element:

     E        1
          identity                                               
     2C6      5    6
           60 deg rotation - cryst. axis [0,0,1]                 
     2C3      7    8
          120 deg rotation - cryst. axis [0,0,1]                 
     C2       2
          180 deg rotation - cart. axis [0,0,1]                  
     3C2'     4   12   11
          180 deg rotation - cart. axis [1,0,0]                  
     3C2''    3    9   10
          180 deg rotation - cart. axis [0,1,0]                  
     i       13
          inversion                                              
     2S3     17   18
          inv.  60 deg rotation - cryst. axis [0,0,1]            
     2S6     19   20
          inv. 120 deg rotation - cryst. axis [0,0,1]            
     s_h     14
          inv. 180 deg rotation - cart. axis [0,0,1]             
     3s_d    16   24   23
          inv. 180 deg rotation - cart. axis [1,0,0]             
     3s_v    15   21   22
          inv. 180 deg rotation - cart. axis [0,1,0]             

   Cartesian axes

     site n.     atom                  positions (alat units)
         1           Sn  tau(   1) = (   0.0000000   0.5773503   2.1367521  )
         2           Sn  tau(   2) = (   0.5000000   0.2886751   2.1367521  )

   Crystallographic axes

     site n.     atom                  positions (cryst. coord.)
         1           Sn  tau(   1) = (  0.3333333  0.6666667  0.5000000  )
         2           Sn  tau(   2) = (  0.6666667  0.3333333  0.5000000  )

     number of k points=    61  Methfessel-Paxton smearing, width (Ry)=  0.0200
                       cart. coord. in units 2pi/alat
        k(    1) = (   0.0000000   0.0000000   0.0000000), wk =   0.0034722
        k(    2) = (   0.0000000   0.0481125   0.0000000), wk =   0.0208333
        k(    3) = (   0.0000000   0.0962250   0.0000000), wk =   0.0208333
        k(    4) = (   0.0000000   0.1443376   0.0000000), wk =   0.0208333
        k(    5) = (   0.0000000   0.1924501   0.0000000), wk =   0.0208333
        k(    6) = (   0.0000000   0.2405626   0.0000000), wk =   0.0208333
        k(    7) = (   0.0000000   0.2886751   0.0000000), wk =   0.0208333
        k(    8) = (   0.0000000   0.3367877   0.0000000), wk =   0.0208333
        k(    9) = (   0.0000000   0.3849002   0.0000000), wk =   0.0208333
        k(   10) = (   0.0000000   0.4330127   0.0000000), wk =   0.0208333
        k(   11) = (   0.0000000   0.4811252   0.0000000), wk =   0.0208333
        k(   12) = (   0.0000000   0.5292377   0.0000000), wk =   0.0208333
        k(   13) = (   0.0000000  -0.5773503   0.0000000), wk =   0.0104167
        k(   14) = (   0.0416667   0.0721688   0.0000000), wk =   0.0208333
        k(   15) = (   0.0416667   0.1202813   0.0000000), wk =   0.0416667
        k(   16) = (   0.0416667   0.1683938   0.0000000), wk =   0.0416667
        k(   17) = (   0.0416667   0.2165064   0.0000000), wk =   0.0416667
        k(   18) = (   0.0416667   0.2646189   0.0000000), wk =   0.0416667
        k(   19) = (   0.0416667   0.3127314   0.0000000), wk =   0.0416667
        k(   20) = (   0.0416667   0.3608439   0.0000000), wk =   0.0416667
        k(   21) = (   0.0416667   0.4089564   0.0000000), wk =   0.0416667
        k(   22) = (   0.0416667   0.4570690   0.0000000), wk =   0.0416667
        k(   23) = (   0.0416667   0.5051815   0.0000000), wk =   0.0416667
        k(   24) = (   0.0416667   0.5532940   0.0000000), wk =   0.0416667
        k(   25) = (   0.0833333   0.1443376   0.0000000), wk =   0.0208333
        k(   26) = (   0.0833333   0.1924501   0.0000000), wk =   0.0416667
        k(   27) = (   0.0833333   0.2405626   0.0000000), wk =   0.0416667
        k(   28) = (   0.0833333   0.2886751   0.0000000), wk =   0.0416667
        k(   29) = (   0.0833333   0.3367877   0.0000000), wk =   0.0416667
        k(   30) = (   0.0833333   0.3849002   0.0000000), wk =   0.0416667
        k(   31) = (   0.0833333   0.4330127   0.0000000), wk =   0.0416667
        k(   32) = (   0.0833333   0.4811252   0.0000000), wk =   0.0416667
        k(   33) = (   0.0833333   0.5292377   0.0000000), wk =   0.0416667
        k(   34) = (   0.0833333   0.5773503   0.0000000), wk =   0.0208333
        k(   35) = (   0.1250000   0.2165064   0.0000000), wk =   0.0208333
        k(   36) = (   0.1250000   0.2646189   0.0000000), wk =   0.0416667
        k(   37) = (   0.1250000   0.3127314   0.0000000), wk =   0.0416667
        k(   38) = (   0.1250000   0.3608439   0.0000000), wk =   0.0416667
        k(   39) = (   0.1250000   0.4089564   0.0000000), wk =   0.0416667
        k(   40) = (   0.1250000   0.4570690   0.0000000), wk =   0.0416667
        k(   41) = (   0.1250000   0.5051815   0.0000000), wk =   0.0416667
        k(   42) = (   0.1250000   0.5532940   0.0000000), wk =   0.0416667
        k(   43) = (   0.1666667   0.2886751   0.0000000), wk =   0.0208333
        k(   44) = (   0.1666667   0.3367877   0.0000000), wk =   0.0416667
        k(   45) = (   0.1666667   0.3849002   0.0000000), wk =   0.0416667
        k(   46) = (   0.1666667   0.4330127   0.0000000), wk =   0.0416667
        k(   47) = (   0.1666667   0.4811252   0.0000000), wk =   0.0416667
        k(   48) = (   0.1666667   0.5292377   0.0000000), wk =   0.0416667
        k(   49) = (   0.1666667   0.5773503   0.0000000), wk =   0.0208333
        k(   50) = (   0.2083333   0.3608439   0.0000000), wk =   0.0208333
        k(   51) = (   0.2083333   0.4089564   0.0000000), wk =   0.0416667
        k(   52) = (   0.2083333   0.4570690   0.0000000), wk =   0.0416667
        k(   53) = (   0.2083333   0.5051815   0.0000000), wk =   0.0416667
        k(   54) = (   0.2083333   0.5532940   0.0000000), wk =   0.0416667
        k(   55) = (   0.2500000   0.4330127   0.0000000), wk =   0.0208333
        k(   56) = (   0.2500000   0.4811252   0.0000000), wk =   0.0416667
        k(   57) = (   0.2500000   0.5292377   0.0000000), wk =   0.0416667
        k(   58) = (   0.2500000   0.5773503   0.0000000), wk =   0.0208333
        k(   59) = (   0.2916667   0.5051815   0.0000000), wk =   0.0208333
        k(   60) = (   0.2916667   0.5532940   0.0000000), wk =   0.0416667
        k(   61) = (   0.3333333   0.5773503   0.0000000), wk =   0.0069444

                       cryst. coord.
        k(    1) = (   0.0000000   0.0000000   0.0000000), wk =   0.0034722
        k(    2) = (   0.0000000   0.0416667   0.0000000), wk =   0.0208333
        k(    3) = (   0.0000000   0.0833333   0.0000000), wk =   0.0208333
        k(    4) = (   0.0000000   0.1250000   0.0000000), wk =   0.0208333
        k(    5) = (   0.0000000   0.1666667   0.0000000), wk =   0.0208333
        k(    6) = (   0.0000000   0.2083333   0.0000000), wk =   0.0208333
        k(    7) = (   0.0000000   0.2500000   0.0000000), wk =   0.0208333
        k(    8) = (   0.0000000   0.2916667   0.0000000), wk =   0.0208333
        k(    9) = (   0.0000000   0.3333333   0.0000000), wk =   0.0208333
        k(   10) = (   0.0000000   0.3750000   0.0000000), wk =   0.0208333
        k(   11) = (   0.0000000   0.4166667   0.0000000), wk =   0.0208333
        k(   12) = (   0.0000000   0.4583333   0.0000000), wk =   0.0208333
        k(   13) = (   0.0000000  -0.5000000   0.0000000), wk =   0.0104167
        k(   14) = (   0.0416667   0.0416667   0.0000000), wk =   0.0208333
        k(   15) = (   0.0416667   0.0833333   0.0000000), wk =   0.0416667
        k(   16) = (   0.0416667   0.1250000   0.0000000), wk =   0.0416667
        k(   17) = (   0.0416667   0.1666667   0.0000000), wk =   0.0416667
        k(   18) = (   0.0416667   0.2083333   0.0000000), wk =   0.0416667
        k(   19) = (   0.0416667   0.2500000   0.0000000), wk =   0.0416667
        k(   20) = (   0.0416667   0.2916667   0.0000000), wk =   0.0416667
        k(   21) = (   0.0416667   0.3333333   0.0000000), wk =   0.0416667
        k(   22) = (   0.0416667   0.3750000   0.0000000), wk =   0.0416667
        k(   23) = (   0.0416667   0.4166667   0.0000000), wk =   0.0416667
        k(   24) = (   0.0416667   0.4583333   0.0000000), wk =   0.0416667
        k(   25) = (   0.0833333   0.0833333   0.0000000), wk =   0.0208333
        k(   26) = (   0.0833333   0.1250000   0.0000000), wk =   0.0416667
        k(   27) = (   0.0833333   0.1666667   0.0000000), wk =   0.0416667
        k(   28) = (   0.0833333   0.2083333   0.0000000), wk =   0.0416667
        k(   29) = (   0.0833333   0.2500000   0.0000000), wk =   0.0416667
        k(   30) = (   0.0833333   0.2916667   0.0000000), wk =   0.0416667
        k(   31) = (   0.0833333   0.3333333   0.0000000), wk =   0.0416667
        k(   32) = (   0.0833333   0.3750000   0.0000000), wk =   0.0416667
        k(   33) = (   0.0833333   0.4166667   0.0000000), wk =   0.0416667
        k(   34) = (   0.0833333   0.4583333   0.0000000), wk =   0.0208333
        k(   35) = (   0.1250000   0.1250000   0.0000000), wk =   0.0208333
        k(   36) = (   0.1250000   0.1666667   0.0000000), wk =   0.0416667
        k(   37) = (   0.1250000   0.2083333   0.0000000), wk =   0.0416667
        k(   38) = (   0.1250000   0.2500000   0.0000000), wk =   0.0416667
        k(   39) = (   0.1250000   0.2916667   0.0000000), wk =   0.0416667
        k(   40) = (   0.1250000   0.3333333   0.0000000), wk =   0.0416667
        k(   41) = (   0.1250000   0.3750000   0.0000000), wk =   0.0416667
        k(   42) = (   0.1250000   0.4166667   0.0000000), wk =   0.0416667
        k(   43) = (   0.1666667   0.1666667   0.0000000), wk =   0.0208333
        k(   44) = (   0.1666667   0.2083333   0.0000000), wk =   0.0416667
        k(   45) = (   0.1666667   0.2500000   0.0000000), wk =   0.0416667
        k(   46) = (   0.1666667   0.2916667   0.0000000), wk =   0.0416667
        k(   47) = (   0.1666667   0.3333333   0.0000000), wk =   0.0416667
        k(   48) = (   0.1666667   0.3750000   0.0000000), wk =   0.0416667
        k(   49) = (   0.1666667   0.4166667   0.0000000), wk =   0.0208333
        k(   50) = (   0.2083333   0.2083333   0.0000000), wk =   0.0208333
        k(   51) = (   0.2083333   0.2500000   0.0000000), wk =   0.0416667
        k(   52) = (   0.2083333   0.2916667   0.0000000), wk =   0.0416667
        k(   53) = (   0.2083333   0.3333333   0.0000000), wk =   0.0416667
        k(   54) = (   0.2083333   0.3750000   0.0000000), wk =   0.0416667
        k(   55) = (   0.2500000   0.2500000   0.0000000), wk =   0.0208333
        k(   56) = (   0.2500000   0.2916667   0.0000000), wk =   0.0416667
        k(   57) = (   0.2500000   0.3333333   0.0000000), wk =   0.0416667
        k(   58) = (   0.2500000   0.3750000   0.0000000), wk =   0.0208333
        k(   59) = (   0.2916667   0.2916667   0.0000000), wk =   0.0208333
        k(   60) = (   0.2916667   0.3333333   0.0000000), wk =   0.0416667
        k(   61) = (   0.3333333   0.3333333   0.0000000), wk =   0.0069444

     Dense  grid:   454685 G-vectors     FFT dimensions: (  64,  64, 270)

     Smooth grid:   160699 G-vectors     FFT dimensions: (  45,  45, 192)

     Dynamical RAM for                 wfc:       0.82 MB

     Dynamical RAM for     wfc (w. buffer):      50.68 MB

     Dynamical RAM for           str. fact:       1.16 MB

     Dynamical RAM for           local pot:       0.00 MB

     Dynamical RAM for          nlocal pot:       1.84 MB

     Dynamical RAM for                qrad:       1.76 MB

     Dynamical RAM for          rho,v,vnew:       7.69 MB

     Dynamical RAM for               rhoin:       2.56 MB

     Dynamical RAM for            rho*nmix:      18.50 MB

     Dynamical RAM for           G-vectors:       4.54 MB

     Dynamical RAM for          h,s,v(r/c):       0.05 MB

     Dynamical RAM for          <psi|beta>:       0.01 MB

     Dynamical RAM for                 psi:       1.63 MB

     Dynamical RAM for                hpsi:       1.63 MB

     Dynamical RAM for                spsi:       1.63 MB

     Dynamical RAM for      wfcinit/wfcrot:       1.85 MB

     Dynamical RAM for           addusdens:     217.40 MB

     Estimated static dynamical RAM per process >      79.57 MB

     Estimated max dynamical RAM per process >     315.47 MB

     Estimated total dynamical RAM >       1.85 GB
 ----2D----2D----2D----2D----2D----2D----2D----2D----2D----2D----2D----2D
  The code is running with the 2D cutoff
  Please refer to:
  Sohier, T., Calandra, M., & Mauri, F. (2017), 
  Density functional perturbation theory for gated two-dimensional heterostructures:
  Theoretical developments and application to flexural phonons in graphene.
  Physical Review B, 96(7), 75448. https://doi.org/10.1103/PhysRevB.96.075448
 ----2D----2D----2D----2D----2D----2D----2D----2D----2D----2D----2D----2D

     Initial potential from superposition of free atoms

     starting charge      25.9999, renormalised to      28.0000

     negative rho (up, down):  6.174E-04 0.000E+00
     Starting wfcs are   18 randomized atomic wfcs

     total cpu time spent up to now is       70.9 secs

     Self-consistent Calculation

     iteration #  1     ecut=    60.00 Ry     beta= 0.70
     Davidson diagonalization with overlap

---- Real-time Memory Report at c_bands before calling an iterative solver
           307 MiB given to the printing process from OS
             0 MiB allocation reported by mallinfo(arena+hblkhd)
          4775 MiB available memory on the node where the printing process lives
------------------
     ethr =  1.00E-02,  avg # of iterations =  3.0

     negative rho (up, down):  7.540E-05 0.000E+00

     total cpu time spent up to now is      329.0 secs

     total energy              =    -317.09198915 Ry
     estimated scf accuracy    <       2.12200870 Ry

     iteration #  2     ecut=    60.00 Ry     beta= 0.70
     Davidson diagonalization with overlap

---- Real-time Memory Report at c_bands before calling an iterative solver
           390 MiB given to the printing process from OS
             0 MiB allocation reported by mallinfo(arena+hblkhd)
          4529 MiB available memory on the node where the printing process lives
------------------
     ethr =  7.58E-03,  avg # of iterations =  2.0

     negative rho (up, down):  4.150E-05 0.000E+00

     total cpu time spent up to now is      540.1 secs

     total energy              =    -317.72699016 Ry
     estimated scf accuracy    <       0.14836045 Ry

     iteration #  3     ecut=    60.00 Ry     beta= 0.70
     Davidson diagonalization with overlap

---- Real-time Memory Report at c_bands before calling an iterative solver
           390 MiB given to the printing process from OS
             0 MiB allocation reported by mallinfo(arena+hblkhd)
          4517 MiB available memory on the node where the printing process lives
------------------
     ethr =  5.30E-04,  avg # of iterations =  2.0

     negative rho (up, down):  5.379E-05 0.000E+00

     total cpu time spent up to now is      738.6 secs

     total energy              =    -317.73361935 Ry
     estimated scf accuracy    <       0.00828990 Ry

     iteration #  4     ecut=    60.00 Ry     beta= 0.70
     Davidson diagonalization with overlap

---- Real-time Memory Report at c_bands before calling an iterative solver
           392 MiB given to the printing process from OS
             0 MiB allocation reported by mallinfo(arena+hblkhd)
          4516 MiB available memory on the node where the printing process lives
------------------
     ethr =  2.96E-05,  avg # of iterations =  3.1

     negative rho (up, down):  5.194E-05 0.000E+00

     total cpu time spent up to now is     1003.1 secs

     total energy              =    -317.73748079 Ry
     estimated scf accuracy    <       0.00263498 Ry

     iteration #  5     ecut=    60.00 Ry     beta= 0.70
     Davidson diagonalization with overlap

---- Real-time Memory Report at c_bands before calling an iterative solver
           392 MiB given to the printing process from OS
             0 MiB allocation reported by mallinfo(arena+hblkhd)
          4509 MiB available memory on the node where the printing process lives
------------------
     ethr =  9.41E-06,  avg # of iterations =  2.3

     negative rho (up, down):  5.286E-05 0.000E+00

     total cpu time spent up to now is     1217.8 secs

     total energy              =    -317.73802425 Ry
     estimated scf accuracy    <       0.00005407 Ry

     iteration #  6     ecut=    60.00 Ry     beta= 0.70
     Davidson diagonalization with overlap

---- Real-time Memory Report at c_bands before calling an iterative solver
           393 MiB given to the printing process from OS
             0 MiB allocation reported by mallinfo(arena+hblkhd)
          4501 MiB available memory on the node where the printing process lives
------------------
     c_bands:  1 eigenvalues not converged
     ethr =  1.93E-07,  avg # of iterations =  6.2

     negative rho (up, down):  5.410E-05 0.000E+00

     total cpu time spent up to now is     1616.9 secs

     total energy              =    -317.73806230 Ry
     estimated scf accuracy    <       0.00004755 Ry

     iteration #  7     ecut=    60.00 Ry     beta= 0.70
     Davidson diagonalization with overlap

---- Real-time Memory Report at c_bands before calling an iterative solver
           398 MiB given to the printing process from OS
             0 MiB allocation reported by mallinfo(arena+hblkhd)
          4493 MiB available memory on the node where the printing process lives
------------------
     ethr =  1.70E-07,  avg # of iterations =  2.2

     negative rho (up, down):  5.389E-05 0.000E+00

     total cpu time spent up to now is     1838.3 secs

     total energy              =    -317.73807974 Ry
     estimated scf accuracy    <       0.00000403 Ry

     iteration #  8     ecut=    60.00 Ry     beta= 0.70
     Davidson diagonalization with overlap

---- Real-time Memory Report at c_bands before calling an iterative solver
           399 MiB given to the printing process from OS
             0 MiB allocation reported by mallinfo(arena+hblkhd)
          4495 MiB available memory on the node where the printing process lives
------------------
     ethr =  1.44E-08,  avg # of iterations =  2.0

     negative rho (up, down):  5.383E-05 0.000E+00

     total cpu time spent up to now is     2030.8 secs

     total energy              =    -317.73807945 Ry
     estimated scf accuracy    <       0.00000093 Ry

     iteration #  9     ecut=    60.00 Ry     beta= 0.70
     Davidson diagonalization with overlap

---- Real-time Memory Report at c_bands before calling an iterative solver
           400 MiB given to the printing process from OS
             0 MiB allocation reported by mallinfo(arena+hblkhd)
          4485 MiB available memory on the node where the printing process lives
------------------
     ethr =  3.33E-09,  avg # of iterations =  3.4

     negative rho (up, down):  5.382E-05 0.000E+00

     total cpu time spent up to now is     2293.5 secs

     End of self-consistent calculation

          k = 0.0000 0.0000 0.0000 ( 20001 PWs)   bands (ev):

   -26.3678 -26.3564 -26.3564 -26.2491 -26.2491 -26.0908 -26.0908 -26.0154
   -26.0154 -25.9561 -14.5585  -6.6118  -6.0489  -5.6747  -5.6747  -1.6687

     occupation numbers 
     1.0000   1.0000   1.0000   1.0000   1.0000   1.0000   1.0000   1.0000
     1.0000   1.0000   1.0000   1.0000   1.0000   1.0000   1.0000  -0.0000

          k = 0.0000 0.0481 0.0000 ( 20007 PWs)   bands (ev):

   -26.3690 -26.3610 -26.3594 -26.2495 -26.2484 -26.0865 -26.0857 -26.0162
   -26.0150 -25.9560 -14.5437  -6.5964  -6.4782  -5.7086  -5.2640  -1.6881

     occupation numbers 
     1.0000   1.0000   1.0000   1.0000   1.0000   1.0000   1.0000   1.0000
     1.0000   1.0000   1.0000   1.0000   1.0000   1.0000   1.0013  -0.0000

          k = 0.0000 0.0962 0.0000 ( 19993 PWs)   bands (ev):

   -26.3776 -26.3737 -26.3622 -26.2506 -26.2463 -26.0747 -26.0717 -26.0185
   -26.0139 -25.9554 -14.4993  -7.0543  -6.5503  -5.8033  -4.7544  -1.7181

     occupation numbers 
     1.0000   1.0000   1.0000   1.0000   1.0000   1.0000   1.0000   1.0000
     1.0000   1.0000   1.0000   1.0000   1.0000   1.0000   0.9180  -0.0000

          k = 0.0000 0.1443 0.0000 ( 20039 PWs)   bands (ev):

   -26.3946 -26.3918 -26.3615 -26.2524 -26.2430 -26.0585 -26.0514 -26.0223
   -26.0121 -25.9541 -14.4255  -7.6339  -6.4740  -5.9418  -4.3220  -1.1337

     occupation numbers 
     1.0000   1.0000   1.0000   1.0000   1.0000   1.0000   1.0000   1.0000
     1.0000   1.0000   1.0000   1.0000   1.0000   1.0000  -0.0244  -0.0000

          k = 0.0000 0.1925 0.0000 ( 20061 PWs)   bands (ev):

   -26.4151 -26.4125 -26.3596 -26.2546 -26.2385 -26.0411 -26.0279 -26.0275
   -26.0098 -25.9511 -14.3226  -8.2032  -6.3681  -6.1047  -4.0250  -0.9063

     occupation numbers 
     1.0000   1.0000   1.0000   1.0000   1.0000   1.0000   1.0000   1.0000
     1.0000   1.0000   1.0000   1.0000   1.0000   1.0000  -0.0060  -0.0000

          k = 0.0000 0.2406 0.0000 ( 20045 PWs)   bands (ev):

   -26.4365 -26.4338 -26.3572 -26.2572 -26.2329 -26.0338 -26.0258 -26.0072
   -26.0033 -25.9453 -14.1914  -8.7553  -6.2752  -6.2338  -3.8841  -1.2975

     occupation numbers 
     1.0000   1.0000   1.0000   1.0000   1.0000   1.0000   1.0000   1.0000
     1.0000   1.0000   1.0000   1.0000   1.0000   1.0000  -0.0007  -0.0000

          k = 0.0000 0.2887 0.0000 ( 20055 PWs)   bands (ev):

   -26.4573 -26.4543 -26.3544 -26.2600 -26.2265 -26.0410 -26.0148 -26.0045
   -25.9793 -25.9360 -14.0331  -9.2851  -6.4405  -6.0729  -3.8613  -1.7040

     occupation numbers 
     1.0000   1.0000   1.0000   1.0000   1.0000   1.0000   1.0000   1.0000
     1.0000   1.0000   1.0000   1.0000   1.0000   1.0000  -0.0005  -0.0000

          k = 0.0000 0.3368 0.0000 ( 20085 PWs)   bands (ev):

   -26.4764 -26.4729 -26.3517 -26.2627 -26.2196 -26.0486 -26.0085 -26.0018
   -25.9572 -25.9238 -13.8498  -9.7873  -6.5916  -5.8881  -3.9008  -2.1106

     occupation numbers 
     1.0000   1.0000   1.0000   1.0000   1.0000   1.0000   1.0000   1.0000
     1.0000   1.0000   1.0000   1.0000   1.0000   1.0000  -0.0010  -0.0000

          k = 0.0000 0.3849 0.0000 ( 20131 PWs)   bands (ev):

   -26.4929 -26.4889 -26.3490 -26.2651 -26.2126 -26.0564 -26.0056 -25.9994
   -25.9379 -25.9108 -13.6455 -10.2555  -6.7220  -5.6841  -3.9628  -2.5047

     occupation numbers 
     1.0000   1.0000   1.0000   1.0000   1.0000   1.0000   1.0000   1.0000
     1.0000   1.0000   1.0000   1.0000   1.0000   1.0000  -0.0026  -0.0000

          k = 0.0000 0.4330 0.0000 ( 20143 PWs)   bands (ev):

   -26.5063 -26.5018 -26.3467 -26.2672 -26.2060 -26.0637 -26.0045 -25.9974
   -25.9222 -25.8991 -13.4282 -10.6799  -6.8273  -5.4694  -4.0250  -2.8719

     occupation numbers 
     1.0000   1.0000   1.0000   1.0000   1.0000   1.0000   1.0000   1.0000
     1.0000   1.0000   1.0000   1.0000   1.0000   1.0000  -0.0060  -0.0000

          k = 0.0000 0.4811 0.0000 ( 20129 PWs)   bands (ev):

   -26.5161 -26.5113 -26.3450 -26.2688 -26.2004 -26.0697 -26.0043 -25.9958
   -25.9106 -25.8898 -13.2145 -11.0425  -6.9044  -5.2609  -4.0752  -3.1918

     occupation numbers 
     1.0000   1.0000   1.0000   1.0000   1.0000   1.0000   1.0000   1.0000
     1.0000   1.0000   1.0000   1.0000   1.0000   1.0014  -0.0109  -0.0000

          k = 0.0000 0.5292 0.0000 ( 20120 PWs)   bands (ev):

   -26.5221 -26.5170 -26.3438 -26.2697 -26.1966 -26.0738 -26.0044 -25.9948
   -25.9034 -25.8840 -13.0405 -11.3062  -6.9515  -5.0935  -4.1074  -3.4269

     occupation numbers 
     1.0000   1.0000   1.0000   1.0000   1.0000   1.0000   1.0000   1.0000
     1.0000   1.0000   1.0000   1.0000   1.0000   1.0129  -0.0151  -0.0000

          k = 0.0000-0.5774 0.0000 ( 20096 PWs)   bands (ev):

   -26.5242 -26.5190 -26.3434 -26.2701 -26.1953 -26.0753 -26.0044 -25.9945
   -25.9010 -25.8820 -12.9688 -11.4078  -6.9673  -5.0253  -4.1185  -3.5179

     occupation numbers 
     1.0000   1.0000   1.0000   1.0000   1.0000   1.0000   1.0000   1.0000
     1.0000   1.0000   1.0000   1.0000   1.0000   1.0235  -0.0168  -0.0000

          k = 0.0417 0.0722 0.0000 ( 20005 PWs)   bands (ev):

   -26.3757 -26.3661 -26.3640 -26.2502 -26.2470 -26.0785 -26.0761 -26.0177
   -26.0142 -25.9556 -14.5141  -6.8977  -6.5657  -5.7767  -4.8822  -1.7220

     occupation numbers 
     1.0000   1.0000   1.0000   1.0000   1.0000   1.0000   1.0000   1.0000
     1.0000   1.0000   1.0000   1.0000   1.0000   1.0000   1.0306  -0.0000

          k = 0.0417 0.1203 0.0000 ( 20013 PWs)   bands (ev):

   -26.3923 -26.3789 -26.3638 -26.2517 -26.2443 -26.0646 -26.0591 -26.0209
   -26.0127 -25.9547 -14.4550  -7.4264  -6.5045  -5.9022  -4.4440  -1.7454

     occupation numbers 
     1.0000   1.0000   1.0000   1.0000   1.0000   1.0000   1.0000   1.0000
     1.0000   1.0000   1.0000   1.0000   1.0000   1.0000   0.1060  -0.0000

          k = 0.0417 0.1684 0.0000 ( 20052 PWs)   bands (ev):

   -26.4133 -26.3960 -26.3620 -26.2538 -26.2403 -26.0477 -26.0377 -26.0254
   -26.0107 -25.9524 -14.3666  -7.9754  -6.4133  -6.0631  -4.0784  -1.6826

     occupation numbers 
     1.0000   1.0000   1.0000   1.0000   1.0000   1.0000   1.0000   1.0000
     1.0000   1.0000   1.0000   1.0000   1.0000   1.0000  -0.0113  -0.0000

          k = 0.0417 0.2165 0.0000 ( 20055 PWs)   bands (ev):

   -26.4360 -26.4150 -26.3597 -26.2563 -26.2351 -26.0312 -26.0312 -26.0146
   -26.0082 -25.9476 -14.2495  -8.5207  -6.2932  -6.2393  -3.8496  -1.4668

     occupation numbers 
     1.0000   1.0000   1.0000   1.0000   1.0000   1.0000   1.0000   1.0000
     1.0000   1.0000   1.0000   1.0000   1.0000   1.0000  -0.0004  -0.0000

          k = 0.0417 0.2646 0.0000 ( 20075 PWs)   bands (ev):

   -26.4584 -26.4342 -26.3571 -26.2590 -26.2291 -26.0380 -26.0181 -26.0055
   -25.9917 -25.9391 -14.1046  -9.0515  -6.4154  -6.1454  -3.7625  -1.5226

     occupation numbers 
     1.0000   1.0000   1.0000   1.0000   1.0000   1.0000   1.0000   1.0000
     1.0000   1.0000   1.0000   1.0000   1.0000   1.0000  -0.0001  -0.0000

          k = 0.0417 0.3127 0.0000 ( 20077 PWs)   bands (ev):

   -26.4794 -26.4524 -26.3543 -26.2618 -26.2223 -26.0456 -26.0098 -26.0027
   -25.9703 -25.9268 -13.9335  -9.5606  -6.5802  -5.9722  -3.7694  -1.9257

     occupation numbers 
     1.0000   1.0000   1.0000   1.0000   1.0000   1.0000   1.0000   1.0000
     1.0000   1.0000   1.0000   1.0000   1.0000   1.0000  -0.0001  -0.0000

          k = 0.0417 0.3608 0.0000 ( 20090 PWs)   bands (ev):

   -26.4980 -26.4685 -26.3515 -26.2644 -26.2152 -26.0535 -26.0057 -26.0001
   -25.9513 -25.9124 -13.7390 -10.0414  -6.7261  -5.7771  -3.8197  -2.3237

     occupation numbers 
     1.0000   1.0000   1.0000   1.0000   1.0000   1.0000   1.0000   1.0000
     1.0000   1.0000   1.0000   1.0000   1.0000   1.0000  -0.0002  -0.0000

          k = 0.0417 0.4090 0.0000 ( 20107 PWs)   bands (ev):

   -26.5136 -26.4821 -26.3490 -26.2667 -26.2082 -26.0612 -26.0040 -25.9979
   -25.9353 -25.8984 -13.5268 -10.4856  -6.8478  -5.5663  -3.8814  -2.7034

     occupation numbers 
     1.0000   1.0000   1.0000   1.0000   1.0000   1.0000   1.0000   1.0000
     1.0000   1.0000   1.0000   1.0000   1.0000   1.0000  -0.0007  -0.0000

          k = 0.0417 0.4571 0.0000 ( 20118 PWs)   bands (ev):

   -26.5257 -26.4927 -26.3469 -26.2686 -26.2018 -26.0681 -26.0036 -25.9960
   -25.9229 -25.8867 -13.3080 -10.8799  -6.9418  -5.3515  -3.9374  -3.0484

     occupation numbers 
     1.0000   1.0000   1.0000   1.0000   1.0000   1.0000   1.0000   1.0000
     1.0000   1.0000   1.0000   1.0000   1.0000   1.0003  -0.0017  -0.0000

          k = 0.0417 0.5052 0.0000 ( 20132 PWs)   bands (ev):

   -26.5339 -26.4998 -26.3455 -26.2699 -26.1969 -26.0733 -26.0037 -25.9948
   -25.9143 -25.8783 -13.1073 -11.1983  -7.0056  -5.1571  -3.9784  -3.3313

     occupation numbers 
     1.0000   1.0000   1.0000   1.0000   1.0000   1.0000   1.0000   1.0000
     1.0000   1.0000   1.0000   1.0000   1.0000   1.0062  -0.0032  -0.0000

          k = 0.0417 0.5533 0.0000 ( 20126 PWs)   bands (ev):

   -26.5381 -26.5035 -26.3447 -26.2705 -26.1942 -26.0763 -26.0038 -25.9941
   -25.9100 -25.8740 -12.9751 -11.3896  -7.0379  -5.0306  -3.9999  -3.5024

     occupation numbers 
     1.0000   1.0000   1.0000   1.0000   1.0000   1.0000   1.0000   1.0000
     1.0000   1.0000   1.0000   1.0000   1.0000   1.0226  -0.0043  -0.0000

          k = 0.0833 0.1443 0.0000 ( 20045 PWs)   bands (ev):

   -26.4131 -26.3880 -26.3646 -26.2535 -26.2408 -26.0501 -26.0413 -26.0248
   -26.0109 -25.9527 -14.3813  -7.8899  -6.4284  -6.0630  -4.0787  -1.7727

     occupation numbers 
     1.0000   1.0000   1.0000   1.0000   1.0000   1.0000   1.0000   1.0000
     1.0000   1.0000   1.0000   1.0000   1.0000   1.0000  -0.0113  -0.0000

          k = 0.0833 0.1925 0.0000 ( 20059 PWs)   bands (ev):

   -26.4363 -26.4018 -26.3635 -26.2559 -26.2361 -26.0340 -26.0301 -26.0215
   -26.0086 -25.9483 -14.2786  -8.3860  -6.3230  -6.2548  -3.7599  -1.7190

     occupation numbers 
     1.0000   1.0000   1.0000   1.0000   1.0000   1.0000   1.0000   1.0000
     1.0000   1.0000   1.0000   1.0000   1.0000   1.0000  -0.0001  -0.0000

          k = 0.0833 0.2406 0.0000 ( 20083 PWs)   bands (ev):

   -26.4600 -26.4175 -26.3615 -26.2587 -26.2303 -26.0366 -26.0193 -26.0059
   -26.0022 -25.9399 -14.1477  -8.8885  -6.4535  -6.1892  -3.5594  -1.4008

     occupation numbers 
     1.0000   1.0000   1.0000   1.0000   1.0000   1.0000   1.0000   1.0000
     1.0000   1.0000   1.0000   1.0000   1.0000   1.0000  -0.0000  -0.0000

          k = 0.0833 0.2887 0.0000 ( 20094 PWs)   bands (ev):

   -26.4826 -26.4335 -26.3589 -26.2615 -26.2236 -26.0440 -26.0091 -26.0031
   -25.9841 -25.9266 -13.9896  -9.3830  -6.6435  -6.0287  -3.4882  -1.7851

     occupation numbers 
     1.0000   1.0000   1.0000   1.0000   1.0000   1.0000   1.0000   1.0000
     1.0000   1.0000   1.0000   1.0000   1.0000   1.0000  -0.0000  -0.0000

          k = 0.0833 0.3368 0.0000 ( 20094 PWs)   bands (ev):

   -26.5031 -26.4484 -26.3562 -26.2643 -26.2163 -26.0520 -26.0039 -26.0003
   -25.9673 -25.9104 -13.8065  -9.8597  -6.8146  -5.8443  -3.5003  -2.1738

     occupation numbers 
     1.0000   1.0000   1.0000   1.0000   1.0000   1.0000   1.0000   1.0000
     1.0000   1.0000   1.0000   1.0000   1.0000   1.0000  -0.0000  -0.0000

          k = 0.0833 0.3849 0.0000 ( 20088 PWs)   bands (ev):

   -26.5209 -26.4614 -26.3536 -26.2669 -26.2088 -26.0602 -26.0019 -25.9978
   -25.9522 -25.8941 -13.6021 -10.3098  -6.9607  -5.6405  -3.5480  -2.5539

     occupation numbers 
     1.0000   1.0000   1.0000   1.0000   1.0000   1.0000   1.0000   1.0000
     1.0000   1.0000   1.0000   1.0000   1.0000   1.0000  -0.0000  -0.0000

          k = 0.0833 0.4330 0.0000 ( 20111 PWs)   bands (ev):

   -26.5352 -26.4721 -26.3513 -26.2691 -26.2017 -26.0679 -26.0015 -25.9956
   -25.9397 -25.8798 -13.3841 -10.7220  -7.0776  -5.4253  -3.6025  -2.9114

     occupation numbers 
     1.0000   1.0000   1.0000   1.0000   1.0000   1.0000   1.0000   1.0000
     1.0000   1.0000   1.0000   1.0000   1.0000   1.0001  -0.0000  -0.0000

          k = 0.0833 0.4811 0.0000 ( 20119 PWs)   bands (ev):

   -26.5457 -26.4800 -26.3495 -26.2707 -26.1956 -26.0744 -26.0018 -25.9940
   -25.9304 -25.8688 -13.1687 -11.0778  -7.1626  -5.2152  -3.6486  -3.2259

     occupation numbers 
     1.0000   1.0000   1.0000   1.0000   1.0000   1.0000   1.0000   1.0000
     1.0000   1.0000   1.0000   1.0000   1.0000   1.0028  -0.0000  -0.0000

          k = 0.0833 0.5292 0.0000 ( 20109 PWs)   bands (ev):

   -26.5521 -26.4848 -26.3484 -26.2717 -26.1914 -26.0789 -26.0021 -25.9930
   -25.9247 -25.8620 -12.9918 -11.3395  -7.2143  -5.0450  -3.6786  -3.4598

     occupation numbers 
     1.0000   1.0000   1.0000   1.0000   1.0000   1.0000   1.0000   1.0000
     1.0000   1.0000   1.0000   1.0000   1.0000   1.0202  -0.0000  -0.0000

          k = 0.0833 0.5774 0.0000 ( 20128 PWs)   bands (ev):

   -26.5542 -26.4865 -26.3480 -26.2721 -26.1899 -26.0805 -26.0022 -25.9927
   -25.9227 -25.8597 -12.9181 -11.4415  -7.2316  -4.9749  -3.6890  -3.5512

     occupation numbers 
     1.0000   1.0000   1.0000   1.0000   1.0000   1.0000   1.0000   1.0000
     1.0000   1.0000   1.0000   1.0000   1.0000   1.0316  -0.0000  -0.0000

          k = 0.1250 0.2165 0.0000 ( 20077 PWs)   bands (ev):

   -26.4605 -26.4106 -26.3641 -26.2586 -26.2307 -26.0361 -26.0190 -26.0066
   -26.0060 -25.9400 -14.1621  -8.8288  -6.4778  -6.2038  -3.4440  -1.3577

     occupation numbers 
     1.0000   1.0000   1.0000   1.0000   1.0000   1.0000   1.0000   1.0000
     1.0000   1.0000   1.0000   1.0000   1.0000   1.0000  -0.0000  -0.0000

          k = 0.1250 0.2646 0.0000 ( 20086 PWs)   bands (ev):

   -26.4842 -26.4215 -26.3633 -26.2615 -26.2241 -26.0433 -26.0062 -26.0031
   -25.9944 -25.9261 -14.0177  -9.2827  -6.7019  -6.0571  -3.2154  -1.7079

     occupation numbers 
     1.0000   1.0000   1.0000   1.0000   1.0000   1.0000   1.0000   1.0000
     1.0000   1.0000   1.0000   1.0000   1.0000   1.0000  -0.0000  -0.0000

          k = 0.1250 0.3127 0.0000 ( 20092 PWs)   bands (ev):

   -26.5063 -26.4329 -26.3616 -26.2645 -26.2167 -26.0514 -26.0002 -25.9996
   -25.9812 -25.9086 -13.8471  -9.7340  -6.9091  -5.8850  -3.1160  -2.0724

     occupation numbers 
     1.0000   1.0000   1.0000   1.0000   1.0000   1.0000   1.0000   1.0000
     1.0000   1.0000   1.0000   1.0000   1.0000   1.0000  -0.0000  -0.0000

          k = 0.1250 0.3608 0.0000 ( 20080 PWs)   bands (ev):

   -26.5258 -26.4438 -26.3595 -26.2674 -26.2087 -26.0600 -25.9977 -25.9974
   -25.9677 -25.8905 -13.6529 -10.1718  -7.0898  -5.6906  -3.1100  -2.4388

     occupation numbers 
     1.0000   1.0000   1.0000   1.0000   1.0000   1.0000   1.0000   1.0000
     1.0000   1.0000   1.0000   1.0000   1.0000   1.0000  -0.0000  -0.0000

          k = 0.1250 0.4090 0.0000 ( 20114 PWs)   bands (ev):

   -26.5422 -26.4534 -26.3574 -26.2699 -26.2008 -26.0686 -25.9977 -25.9950
   -25.9557 -25.8741 -13.4401 -10.5854  -7.2383  -5.4796  -3.1442  -2.7947

     occupation numbers 
     1.0000   1.0000   1.0000   1.0000   1.0000   1.0000   1.0000   1.0000
     1.0000   1.0000   1.0000   1.0000   1.0000   1.0000  -0.0000  -0.0000

          k = 0.1250 0.4571 0.0000 ( 20113 PWs)   bands (ev):

   -26.5549 -26.4609 -26.3556 -26.2719 -26.1934 -26.0764 -25.9984 -25.9930
   -25.9461 -25.8608 -13.2191 -10.9602  -7.3515  -5.2629  -3.1861  -3.1243

     occupation numbers 
     1.0000   1.0000   1.0000   1.0000   1.0000   1.0000   1.0000   1.0000
     1.0000   1.0000   1.0000   1.0000   1.0000   1.0014  -0.0000  -0.0000

          k = 0.1250 0.5052 0.0000 ( 20113 PWs)   bands (ev):

   -26.5635 -26.4662 -26.3543 -26.2733 -26.1875 -26.0826 -25.9991 -25.9916
   -25.9395 -25.8515 -13.0135 -11.2700  -7.4278  -5.0637  -3.4007  -3.2201

     occupation numbers 
     1.0000   1.0000   1.0000   1.0000   1.0000   1.0000   1.0000   1.0000
     1.0000   1.0000   1.0000   1.0000   1.0000   1.0172  -0.0000  -0.0000

          k = 0.1250 0.5533 0.0000 ( 20114 PWs)   bands (ev):

   -26.5679 -26.4689 -26.3535 -26.2740 -26.1842 -26.0861 -25.9995 -25.9909
   -25.9361 -25.8467 -12.8749 -11.4610  -7.4662  -4.9312  -3.5724  -3.2385

     occupation numbers 
     1.0000   1.0000   1.0000   1.0000   1.0000   1.0000   1.0000   1.0000
     1.0000   1.0000   1.0000   1.0000   1.0000   1.0354  -0.0000  -0.0000

          k = 0.1667 0.2887 0.0000 ( 20089 PWs)   bands (ev):

   -26.5073 -26.4268 -26.3644 -26.2647 -26.2167 -26.0513 -26.0001 -25.9933
   -25.9909 -25.9080 -13.8607  -9.6884  -6.9482  -5.8986  -2.9031  -2.0362

     occupation numbers 
     1.0000   1.0000   1.0000   1.0000   1.0000   1.0000   1.0000   1.0000
     1.0000   1.0000   1.0000   1.0000   1.0000   1.0000  -0.0000  -0.0000

          k = 0.1667 0.3368 0.0000 ( 20084 PWs)   bands (ev):

   -26.5284 -26.4329 -26.3644 -26.2677 -26.2085 -26.0601 -25.9971 -25.9912
   -25.9803 -25.8886 -13.6785 -10.0944  -7.1718  -5.7159  -2.7128  -2.3753

     occupation numbers 
     1.0000   1.0000   1.0000   1.0000   1.0000   1.0000   1.0000   1.0000
     1.0000   1.0000   1.0000   1.0000   1.0000   1.0000  -0.0000  -0.0000

          k = 0.1667 0.3849 0.0000 ( 20093 PWs)   bands (ev):

   -26.5465 -26.4391 -26.3637 -26.2706 -26.1998 -26.0693 -25.9944 -25.9921
   -25.9691 -25.8704 -13.4744 -10.4904  -7.3617  -5.5129  -2.7148  -2.6523

     occupation numbers 
     1.0000   1.0000   1.0000   1.0000   1.0000   1.0000   1.0000   1.0000
     1.0000   1.0000   1.0000   1.0000   1.0000   1.0000  -0.0000  -0.0000

          k = 0.1667 0.4330 0.0000 ( 20113 PWs)   bands (ev):

   -26.5612 -26.4446 -26.3627 -26.2730 -26.1913 -26.0784 -25.9935 -25.9921
   -25.9599 -25.8551 -13.2548 -10.8645  -7.5123  -5.2967  -3.0427  -2.6577

     occupation numbers 
     1.0000   1.0000   1.0000   1.0000   1.0000   1.0000   1.0000   1.0000
     1.0000   1.0000   1.0000   1.0000   1.0000   1.0008  -0.0000  -0.0000

          k = 0.1667 0.4811 0.0000 ( 20107 PWs)   bands (ev):

   -26.5719 -26.4490 -26.3617 -26.2748 -26.1836 -26.0864 -25.9948 -25.9903
   -25.9530 -25.8435 -13.0341 -11.1985  -7.6210  -5.0817  -3.3404  -2.6813

     occupation numbers 
     1.0000   1.0000   1.0000   1.0000   1.0000   1.0000   1.0000   1.0000
     1.0000   1.0000   1.0000   1.0000   1.0000   1.0145  -0.0000  -0.0000

          k = 0.1667 0.5292 0.0000 ( 20106 PWs)   bands (ev):

   -26.5785 -26.4517 -26.3610 -26.2759 -26.1780 -26.0922 -25.9957 -25.9892
   -25.9488 -25.8363 -12.8468 -11.4549  -7.6865  -4.9015  -3.5714  -2.7013

     occupation numbers 
     1.0000   1.0000   1.0000   1.0000   1.0000   1.0000   1.0000   1.0000
     1.0000   1.0000   1.0000   1.0000   1.0000   1.0341  -0.0000  -0.0000

          k = 0.1667 0.5774 0.0000 ( 20103 PWs)   bands (ev):

   -26.5807 -26.4527 -26.3607 -26.2763 -26.1759 -26.0943 -25.9960 -25.9889
   -25.9473 -25.8339 -12.7658 -11.5591  -7.7084  -4.8244  -3.6656  -2.7087

     occupation numbers 
     1.0000   1.0000   1.0000   1.0000   1.0000   1.0000   1.0000   1.0000
     1.0000   1.0000   1.0000   1.0000   1.0000   1.0023  -0.0000  -0.0000

          k = 0.2083 0.3608 0.0000 ( 20087 PWs)   bands (ev):

   -26.5479 -26.4334 -26.3667 -26.2708 -26.1994 -26.0696 -25.9942 -25.9874
   -25.9766 -25.8692 -13.4859 -10.4559  -7.4076  -5.5241  -2.6861  -2.3707

     occupation numbers 
     1.0000   1.0000   1.0000   1.0000   1.0000   1.0000   1.0000   1.0000
     1.0000   1.0000   1.0000   1.0000   1.0000   1.0000  -0.0000  -0.0000

          k = 0.2083 0.4090 0.0000 ( 20099 PWs)   bands (ev):

   -26.5643 -26.4344 -26.3682 -26.2736 -26.1899 -26.0796 -25.9916 -25.9881
   -25.9700 -25.8522 -13.2732 -10.8101  -7.6037  -5.3141  -2.9967  -2.1834

     occupation numbers 
     1.0000   1.0000   1.0000   1.0000   1.0000   1.0000   1.0000   1.0000
     1.0000   1.0000   1.0000   1.0000   1.0000   1.0006  -0.0000  -0.0000

          k = 0.2083 0.4571 0.0000 ( 20115 PWs)   bands (ev):

   -26.5771 -26.4355 -26.3690 -26.2758 -26.1806 -26.0893 -25.9897 -25.9894
   -25.9641 -25.8385 -13.0486 -11.1447  -7.7537  -5.0943  -3.2952  -2.1271

     occupation numbers 
     1.0000   1.0000   1.0000   1.0000   1.0000   1.0000   1.0000   1.0000
     1.0000   1.0000   1.0000   1.0000   1.0000   1.0128  -0.0000  -0.0000

          k = 0.2083 0.5052 0.0000 ( 20122 PWs)   bands (ev):

   -26.5858 -26.4366 -26.3694 -26.2774 -26.1725 -26.0976 -25.9910 -25.9879
   -25.9599 -25.8291 -12.8316 -11.4369  -7.8547  -4.8844  -3.5594  -2.1213

     occupation numbers 
     1.0000   1.0000   1.0000   1.0000   1.0000   1.0000   1.0000   1.0000
     1.0000   1.0000   1.0000   1.0000   1.0000   1.0311  -0.0000  -0.0000

          k = 0.2083 0.5533 0.0000 ( 20133 PWs)   bands (ev):

   -26.5902 -26.4371 -26.3695 -26.2782 -26.1675 -26.1027 -25.9917 -25.9872
   -25.9577 -25.8243 -12.6754 -11.6313  -7.9055  -4.7349  -3.7364  -2.1253

     occupation numbers 
     1.0000   1.0000   1.0000   1.0000   1.0000   1.0000   1.0000   1.0000
     1.0000   1.0000   1.0000   1.0000   1.0000   0.8829  -0.0000  -0.0000

          k = 0.2500 0.4330 0.0000 ( 20133 PWs)   bands (ev):

   -26.5788 -26.4300 -26.3724 -26.2762 -26.1795 -26.0904 -25.9891 -25.9864
   -25.9695 -25.8369 -13.0538 -11.1246  -7.8010  -5.0988  -3.2784  -1.7980

     occupation numbers 
     1.0000   1.0000   1.0000   1.0000   1.0000   1.0000   1.0000   1.0000
     1.0000   1.0000   1.0000   1.0000   1.0000   1.0122  -0.0000  -0.0000

          k = 0.2500 0.4811 0.0000 ( 20115 PWs)   bands (ev):

   -26.5894 -26.4264 -26.3760 -26.2782 -26.1692 -26.1009 -25.9872 -25.9864
   -25.9678 -25.8254 -12.8253 -11.4227  -7.9455  -4.8768  -3.5491  -1.5975

     occupation numbers 
     1.0000   1.0000   1.0000   1.0000   1.0000   1.0000   1.0000   1.0000
     1.0000   1.0000   1.0000   1.0000   1.0000   1.0292  -0.0000  -0.0000

          k = 0.2500 0.5292 0.0000 ( 20109 PWs)   bands (ev):

   -26.5959 -26.4240 -26.3784 -26.2794 -26.1606 -26.1096 -25.9869 -25.9860
   -25.9664 -25.8183 -12.6148 -11.6758  -8.0335  -4.6744  -3.7814  -1.5341

     occupation numbers 
     1.0000   1.0000   1.0000   1.0000   1.0000   1.0000   1.0000   1.0000
     1.0000   1.0000   1.0000   1.0000   1.0000   0.7427  -0.0001  -0.0000

          k = 0.2500 0.5774 0.0000 ( 20109 PWs)   bands (ev):

   -26.5981 -26.4231 -26.3793 -26.2799 -26.1568 -26.1134 -25.9871 -25.9856
   -25.9658 -25.8159 -12.5111 -11.7939  -8.0629  -4.5756  -3.8902  -1.5215

     occupation numbers 
     1.0000   1.0000   1.0000   1.0000   1.0000   1.0000   1.0000   1.0000
     1.0000   1.0000   1.0000   1.0000   1.0000   0.4479  -0.0008  -0.0000

          k = 0.2917 0.5052 0.0000 ( 20105 PWs)   bands (ev):

   -26.5979 -26.4179 -26.3830 -26.2799 -26.1576 -26.1125 -25.9856 -25.9839
   -25.9707 -25.8163 -12.5935 -11.6908  -8.0778  -4.6528  -3.7969  -1.1629

     occupation numbers 
     1.0000   1.0000   1.0000   1.0000   1.0000   1.0000   1.0000   1.0000
     1.0000   1.0000   1.0000   1.0000   1.0000   0.6829  -0.0001  -0.0000

          k = 0.2917 0.5533 0.0000 ( 20115 PWs)   bands (ev):

   -26.6022 -26.4116 -26.3886 -26.2807 -26.1480 -26.1222 -25.9848 -25.9825
   -25.9723 -25.8116 -12.3874 -11.9149  -8.1451  -4.4555  -4.0059  -0.9563

     occupation numbers 
     1.0000   1.0000   1.0000   1.0000   1.0000   1.0000   1.0000   1.0000
     1.0000   1.0000   1.0000   1.0000   1.0000   0.1283  -0.0047  -0.0000

          k = 0.3333 0.5774 0.0000 ( 20085 PWs)   bands (ev):

   -26.6043 -26.3997 -26.3997 -26.2812 -26.1351 -26.1351 -25.9844 -25.9776
   -25.9776 -25.8093 -12.1530 -12.1530  -8.1830  -4.2315  -4.2315  -0.4578

     occupation numbers 
     1.0000   1.0000   1.0000   1.0000   1.0000   1.0000   1.0000   1.0000
     1.0000   1.0000   1.0000   1.0000   1.0000  -0.0341  -0.0341  -0.0000

     the Fermi energy is    -4.5924 ev

!    total energy              =    -317.73807963 Ry
     estimated scf accuracy    <       0.00000006 Ry
     smearing contrib. (-TS)   =       0.00028791 Ry
     internal energy E=F+TS    =    -317.73836754 Ry

     The total energy is F=E-TS. E is the sum of the following terms:
     one-electron contribution =   -1338.31317897 Ry
     hartree contribution      =     673.55368403 Ry
     xc contribution           =     -85.00357994 Ry
     ewald contribution        =     432.02470734 Ry

     convergence has been achieved in   9 iterations

     Writing all to output data dir ../tmp/stanene.save/

     init_run     :     45.87s CPU     70.82s WALL (       1 calls)
     electrons    :   1475.70s CPU   2222.65s WALL (       1 calls)

     Called by init_run:
     wfcinit      :     42.35s CPU     63.69s WALL (       1 calls)
     wfcinit:atom :      0.14s CPU      0.12s WALL (      61 calls)
     wfcinit:wfcr :     41.47s CPU     62.91s WALL (      61 calls)
     potinit      :      0.50s CPU      0.62s WALL (       1 calls)
     hinit0       :      0.55s CPU      0.63s WALL (       1 calls)

     Called by electrons:
     c_bands      :   1318.36s CPU   1981.76s WALL (       9 calls)
     sum_band     :    127.65s CPU    185.40s WALL (       9 calls)
     v_of_rho     :      1.55s CPU      1.72s WALL (      10 calls)
     v_h          :      0.10s CPU      0.12s WALL (      10 calls)
     v_xc         :      1.45s CPU      1.60s WALL (      10 calls)
     newd         :     29.78s CPU     58.81s WALL (      10 calls)
     mix_rho      :      0.26s CPU      0.26s WALL (       9 calls)

     Called by c_bands:
     init_us_2    :      1.63s CPU      1.84s WALL (    1159 calls)
     init_us_2:cp :      1.62s CPU      1.84s WALL (    1159 calls)
     cegterg      :   1273.04s CPU   1934.42s WALL (     549 calls)

     Called by sum_band:
     sum_band:wei :      0.01s CPU      0.01s WALL (       9 calls)
     sum_band:loo :    123.01s CPU    179.25s WALL (       9 calls)
     sum_band:buf :      0.12s CPU      0.18s WALL (     549 calls)
     sum_band:ini :      0.59s CPU      0.93s WALL (     549 calls)
     sum_band:cal :     95.11s CPU    146.20s WALL (     549 calls)
     sum_band:bec :      0.03s CPU      0.02s WALL (     549 calls)
     addusdens    :      3.68s CPU      5.16s WALL (       9 calls)
                                        0.00s GPU  (       9 calls)
     addusd:skk   :      0.01s CPU      0.01s WALL (       9 calls)
                                        0.00s GPU  (       9 calls)

     Called by *egterg:
     cdiaghg      :     63.96s CPU    129.99s WALL (    2148 calls)
     cegterg:over :    331.60s CPU    489.43s WALL (    1599 calls)
     cegterg:upda :     35.37s CPU     65.46s WALL (    1599 calls)
     cegterg:last :     45.91s CPU     85.32s WALL (    1323 calls)
     h_psi        :    565.44s CPU    856.29s WALL (    2209 calls)
     s_psi        :     20.90s CPU     37.08s WALL (    2209 calls)
     g_psi        :      0.34s CPU      0.29s WALL (    1599 calls)

     Called by h_psi:
     h_psi:calbec :    361.13s CPU    592.55s WALL (    2209 calls)
     vloc_psi     :    145.01s CPU    137.07s WALL (    2209 calls)
     add_vuspsi   :     58.75s CPU    125.90s WALL (    2209 calls)

     General routines
     calbec       :    456.24s CPU    738.40s WALL (    2758 calls)
     fft          :      1.66s CPU      1.76s WALL (     128 calls)
     ffts         :      0.27s CPU      0.25s WALL (      19 calls)
     fftw         :    154.44s CPU    147.66s WALL (   63218 calls)
     interpolate  :      0.26s CPU      0.28s WALL (      10 calls)

     Parallel routines

     PWSCF        :  25m21.86s CPU  38m14.17s WALL


   This run was terminated on:  23: 2:25  22Jun2024            

=------------------------------------------------------------------------------=
   JOB DONE.
=------------------------------------------------------------------------------=
