
     Program PHONON v.7.2 starts on 22Jun2024 at 23: 2:26 

     This program is part of the open-source Quantum ESPRESSO suite
     for quantum simulation of materials; please cite
         "P. Giannozzi et al., J. Phys.:Condens. Matter 21 395502 (2009);
         "P. Giannozzi et al., J. Phys.:Condens. Matter 29 465901 (2017);
         "P. Giannozzi et al., J. Chem. Phys. 152 154105 (2020);
          URL http://www.quantum-espresso.org", 
     in publications or presentations arising from this work. More details at
     http://www.quantum-espresso.org/quote

     Parallel version (MPI), running on     6 processors

     MPI processes distributed on     1 nodes
     5087 MiB available memory on the printing compute node when the environment starts

     Waiting for input...
     Reading input from standard input

     Reading xml data from directory:

     ../tmp/stanene.save/

     R & G space division:  proc/nbgrp/npool/nimage =       6
     Subspace diagonalization in iterative solution of the eigenvalue problem:
     a serial algorithm will be used


     IMPORTANT: XC functional enforced from input :
     Exchange-correlation= PBESOL
                           (   1   4  10   8   0   0   0)
     Any further DFT definition will be discarded
     Please, verify this is what you really want


     Parallelization info
     --------------------
     sticks:   dense  smooth     PW     G-vecs:    dense   smooth      PW
     Min         431     214     61                75773    26776    4007
     Max         432     215     62                75788    26799    4017
     Sum        2587    1285    367               454685   160699   24069

     Using Slab Decomposition

 ----2D----2D----2D----2D----2D----2D----2D----2D----2D----2D----2D----2D
  The code is running with the 2D cutoff
  Please refer to:
  Sohier, T., Calandra, M., & Mauri, F. (2017), 
  Density functional perturbation theory for gated two-dimensional heterostructures:
  Theoretical developments and application to flexural phonons in graphene.
  Physical Review B, 96(7), 75448. https://doi.org/10.1103/PhysRevB.96.075448
 ----2D----2D----2D----2D----2D----2D----2D----2D----2D----2D----2D----2D

     negative rho (up, down):  5.382E-05 0.000E+00
     Reading collected, re-writing distributed wavefunctions in ../tmp/


     Dynamical matrices for (12,12, 1)  uniform grid of q-points
     (  19 q-points):
       N         xq(1)         xq(2)         xq(3) 
       1   0.000000000   0.000000000   0.000000000
       2   0.000000000   0.096225045   0.000000000
       3   0.000000000   0.192450090   0.000000000
       4   0.000000000   0.288675135   0.000000000
       5   0.000000000   0.384900179   0.000000000
       6   0.000000000   0.481125224   0.000000000
       7   0.000000000  -0.577350269   0.000000000
       8   0.083333333   0.144337567   0.000000000
       9   0.083333333   0.240562612   0.000000000
      10   0.083333333   0.336787657   0.000000000
      11   0.083333333   0.433012702   0.000000000
      12   0.083333333   0.529237747   0.000000000
      13   0.166666667   0.288675135   0.000000000
      14   0.166666667   0.384900179   0.000000000
      15   0.166666667   0.481125224   0.000000000
      16   0.166666667   0.577350269   0.000000000
      17   0.250000000   0.433012702   0.000000000
      18   0.250000000   0.529237747   0.000000000
      19   0.333333333   0.577350269   0.000000000

     Calculation of q =    0.0000000   0.0000000   0.0000000

     phonon calc.                                                               

     bravais-lattice index     =            4
     lattice parameter (alat)  =       8.8439  a.u.
     unit-cell volume          =    2560.0529 (a.u.)^3
     number of atoms/cell      =            2
     number of atomic types    =            1
     kinetic-energy cut-off    =      60.0000  Ry
     charge density cut-off    =     480.0000  Ry
     convergence threshold     =      1.0E-14
     beta                      =       0.7000
     number of iterations used =            4
     Exchange-correlation= PBESOL
                           (   1   4  10   8   0   0   0)


     celldm(1)=    8.84392  celldm(2)=    0.00000  celldm(3)=    4.27350
     celldm(4)=    0.00000  celldm(5)=    0.00000  celldm(6)=    0.00000

     crystal axes: (cart. coord. in units of alat)
               a(1) = (  1.0000  0.0000  0.0000 )  
               a(2) = ( -0.5000  0.8660  0.0000 )  
               a(3) = (  0.0000  0.0000  4.2735 )  

     reciprocal axes: (cart. coord. in units 2 pi/alat)
               b(1) = (  1.0000  0.5774 -0.0000 )  
               b(2) = (  0.0000  1.1547  0.0000 )  
               b(3) = (  0.0000 -0.0000  0.2340 )  


     Atoms inside the unit cell: 

     Cartesian axes

     site n.  atom      mass           positions (alat units)
        1     Sn 118.7100   tau(    1) = (    0.00000    0.57735    2.13675  )
        2     Sn 118.7100   tau(    2) = (    0.50000    0.28868    2.13675  )

     Computing dynamical matrix for 
                    q = (   0.0000000   0.0000000   0.0000000 )

     25 Sym.Ops. (with q -> -q+G )


     G cutoff =  950.9790  (  75785 G-vectors)     FFT grid: ( 64, 64,270)
     G cutoff =  475.4895  (  26786 G-vectors)  smooth grid: ( 45, 45,192)

     number of k points=    61  Methfessel-Paxton smearing, width (Ry)=  0.0200

     PseudoPot. # 1 for Sn read from file:
     ../pseudo/sn_pbesol_v1.4.uspp.F.UPF
     MD5 check sum: 463fec1d5456f1e96ec1bfcad4b7b038
     Pseudo is Ultrasoft + core correction, Zval = 14.0
     Generated by new atomic code, or converted to UPF format
     Using radial grid of  891 points,  6 beta functions with: 
                l(1) =   0
                l(2) =   0
                l(3) =   1
                l(4) =   1
                l(5) =   2
                l(6) =   2
     Q(r) pseudized with  8 coefficients,  rinner =    1.350   1.350   1.350
                                                       1.350   1.350

     Mode symmetry, D_6h(6/mmm) point group:


     Atomic displacements:
     There are    4 irreducible representations

     Representation     1      1 modes -  To be done

     Representation     2      2 modes -  To be done

     Representation     3      1 modes -  To be done

     Representation     4      2 modes -  To be done



     Alpha used in Ewald sum =   2.8000

     negative rho (up, down):  5.382E-05 0.000E+00
     PHONON       :   3m39.85s CPU   5m38.77s WALL



     Representation #   1 mode #   1

     Self-consistent Calculation

     Pert. #  1: Fermi energy shift (Ry) =     2.2058E-24     6.1224E-41

      iter #   1 total cpu time :  1119.2 secs   av.it.:   6.9
      thresh= 1.000E-02 alpha_mix =  0.700 |ddv_scf|^2 =  3.092E-07

     Pert. #  1: Fermi energy shift (Ry) =    -6.8932E-26    -6.1224E-41

      iter #   2 total cpu time :  2561.4 secs   av.it.:  14.4
      thresh= 5.561E-05 alpha_mix =  0.700 |ddv_scf|^2 =  2.995E-08

     Pert. #  1: Fermi energy shift (Ry) =     2.2058E-24    -1.2245E-40

      iter #   3 total cpu time :  3993.1 secs   av.it.:  14.5
      thresh= 1.731E-05 alpha_mix =  0.700 |ddv_scf|^2 =  2.440E-09

     Pert. #  1: Fermi energy shift (Ry) =    -2.2058E-24    -1.2245E-40

      iter #   4 total cpu time :  5372.6 secs   av.it.:  13.5
      thresh= 4.940E-06 alpha_mix =  0.700 |ddv_scf|^2 =  2.624E-12

     Pert. #  1: Fermi energy shift (Ry) =     2.2058E-24    -1.2245E-40

      iter #   5 total cpu time :  6736.2 secs   av.it.:  13.7
      thresh= 1.620E-07 alpha_mix =  0.700 |ddv_scf|^2 =  2.164E-14

     Pert. #  1: Fermi energy shift (Ry) =     2.2058E-24    -1.2245E-40

      iter #   6 total cpu time :  8464.3 secs   av.it.:  13.5
      thresh= 1.471E-08 alpha_mix =  0.700 |ddv_scf|^2 =  7.577E-16

     End of self-consistent calculation

     Convergence has been achieved 


     Representation #   2 modes #   2   3

     Self-consistent Calculation

     Pert. #  1: Fermi energy shift (Ry) =    -5.2042E-18     9.7958E-40
     Pert. #  2: Fermi energy shift (Ry) =     3.4694E-18     4.8979E-39

      iter #   1 total cpu time : 10213.7 secs   av.it.:   8.3
      thresh= 1.000E-02 alpha_mix =  0.700 |ddv_scf|^2 =  1.052E-07

     Pert. #  1: Fermi energy shift (Ry) =     2.0238E-18     2.4489E-40
     Pert. #  2: Fermi energy shift (Ry) =    -1.7347E-18    -1.9592E-39

      iter #   2 total cpu time : 13203.0 secs   av.it.:  17.1
      thresh= 3.243E-05 alpha_mix =  0.700 |ddv_scf|^2 =  1.878E-08

     Pert. #  1: Fermi energy shift (Ry) =    -7.9508E-19     6.1224E-41
     Pert. #  2: Fermi energy shift (Ry) =     1.4456E-18    -7.9591E-40

      iter #   3 total cpu time : 16132.4 secs   av.it.:  16.5
      thresh= 1.370E-05 alpha_mix =  0.700 |ddv_scf|^2 =  5.582E-10

     Pert. #  1: Fermi energy shift (Ry) =     1.1565E-18     6.1224E-41
     Pert. #  2: Fermi energy shift (Ry) =     7.5894E-19    -7.9591E-40

      iter #   4 total cpu time : 18776.4 secs   av.it.:  14.8
      thresh= 2.363E-06 alpha_mix =  0.700 |ddv_scf|^2 =  4.540E-13

     Pert. #  1: Fermi energy shift (Ry) =    -2.0961E-18     6.1224E-41
     Pert. #  2: Fermi energy shift (Ry) =     7.9508E-19    -7.9591E-40

      iter #   5 total cpu time : 21707.2 secs   av.it.:  17.3
      thresh= 6.738E-08 alpha_mix =  0.700 |ddv_scf|^2 =  3.544E-15

     End of self-consistent calculation

     Convergence has been achieved 


     Representation #   3 mode #   4

     Self-consistent Calculation

     Pert. #  1: Fermi energy shift (Ry) =    -3.5293E-23     9.7958E-40

      iter #   1 total cpu time : 22741.2 secs   av.it.:   8.6
      thresh= 1.000E-02 alpha_mix =  0.700 |ddv_scf|^2 =  6.991E-05

     Pert. #  1: Fermi energy shift (Ry) =    -3.5293E-23     6.1224E-41

      iter #   2 total cpu time : 24004.5 secs   av.it.:  12.6
      thresh= 8.361E-04 alpha_mix =  0.700 |ddv_scf|^2 =  3.353E-04

     Pert. #  1: Fermi energy shift (Ry) =     1.7647E-23    -1.9592E-39

      iter #   3 total cpu time : 25109.0 secs   av.it.:  10.9
      thresh= 1.831E-03 alpha_mix =  0.700 |ddv_scf|^2 =  1.244E-06

     Pert. #  1: Fermi energy shift (Ry) =     0.0000E+00    -2.4489E-40

      iter #   4 total cpu time : 26240.5 secs   av.it.:  11.2
      thresh= 1.115E-04 alpha_mix =  0.700 |ddv_scf|^2 =  5.418E-09

     Pert. #  1: Fermi energy shift (Ry) =     4.4116E-24    -1.2245E-40

      iter #   5 total cpu time : 27409.5 secs   av.it.:  11.8
      thresh= 7.361E-06 alpha_mix =  0.700 |ddv_scf|^2 =  3.302E-10

     Pert. #  1: Fermi energy shift (Ry) =     4.4116E-24    -1.2245E-40

      iter #   6 total cpu time : 28552.4 secs   av.it.:  10.9
      thresh= 1.817E-06 alpha_mix =  0.700 |ddv_scf|^2 =  1.791E-11

     Pert. #  1: Fermi energy shift (Ry) =     4.4116E-24    -1.2245E-40

      iter #   7 total cpu time : 29763.7 secs   av.it.:  11.4
      thresh= 4.232E-07 alpha_mix =  0.700 |ddv_scf|^2 =  8.762E-15

     End of self-consistent calculation

     Convergence has been achieved 


     Representation #   4 modes #   5   6

     Self-consistent Calculation

     Pert. #  1: Fermi energy shift (Ry) =    -1.3235E-23     0.0000E+00
     Pert. #  2: Fermi energy shift (Ry) =     0.0000E+00     5.0154E-37

      iter #   1 total cpu time : 31439.5 secs   av.it.:   7.2
      thresh= 1.000E-02 alpha_mix =  0.700 |ddv_scf|^2 =  4.579E-08

     Pert. #  1: Fermi energy shift (Ry) =    -4.4116E-24     2.4489E-39
     Pert. #  2: Fermi energy shift (Ry) =    -3.8602E-24     0.0000E+00

      iter #   2 total cpu time : 34459.4 secs   av.it.:  16.9
      thresh= 2.140E-05 alpha_mix =  0.700 |ddv_scf|^2 =  4.042E-09

     Pert. #  1: Fermi energy shift (Ry) =     0.0000E+00     4.8979E-39
     Pert. #  2: Fermi energy shift (Ry) =     4.4116E-24     0.0000E+00

      iter #   3 total cpu time : 37388.7 secs   av.it.:  16.5
      thresh= 6.358E-06 alpha_mix =  0.700 |ddv_scf|^2 =  1.874E-10

     Pert. #  1: Fermi energy shift (Ry) =     0.0000E+00     4.8979E-39
     Pert. #  2: Fermi energy shift (Ry) =     0.0000E+00     0.0000E+00

      iter #   4 total cpu time : 40205.4 secs   av.it.:  14.7
      thresh= 1.369E-06 alpha_mix =  0.700 |ddv_scf|^2 =  5.683E-13

     Pert. #  1: Fermi energy shift (Ry) =    -1.3235E-23     4.8979E-39
     Pert. #  2: Fermi energy shift (Ry) =    -6.6174E-24     0.0000E+00

      iter #   5 total cpu time : 43099.2 secs   av.it.:  16.4
      thresh= 7.538E-08 alpha_mix =  0.700 |ddv_scf|^2 =  8.240E-15

     End of self-consistent calculation

     Convergence has been achieved 

     Number of q in the star =    1
     List of q in the star:
          1   0.000000000   0.000000000   0.000000000

     Diagonalizing the dynamical matrix

     q = (    0.000000000   0.000000000   0.000000000 ) 

 **************************************************************************
     freq (    1) =      -3.140560 [THz] =    -104.757816 [cm-1]
     freq (    2) =      -0.990504 [THz] =     -33.039647 [cm-1]
     freq (    3) =      -0.800649 [THz] =     -26.706770 [cm-1]
     freq (    4) =      -0.800649 [THz] =     -26.706770 [cm-1]
     freq (    5) =       6.520935 [THz] =     217.514989 [cm-1]
     freq (    6) =       6.520935 [THz] =     217.514989 [cm-1]
 **************************************************************************

     Mode symmetry, D_6h(6/mmm) point group:

     freq (   1-   1) =       -104.8  [cm-1]   --> B_1g               
     freq (   2-   2) =        -33.0  [cm-1]   --> A_2u            I  
     freq (   3-   4) =        -26.7  [cm-1]   --> E_1u            I  
     freq (   5-   6) =        217.5  [cm-1]   --> E_2g            R  

     Calculation of q =    0.0000000   0.0962250   0.0000000

     Parallelization info
     --------------------
     sticks:   dense  smooth     PW     G-vecs:    dense   smooth      PW
     Min         431     214     61                75773    26776    4087
     Max         432     215     62                75788    26799    4100
     Sum        2587    1285    367               454685   160699   24549

     Using Slab Decomposition


     Title: 
     phonon calc.                                                               


     bravais-lattice index     =            4
     lattice parameter (alat)  =       8.8439  a.u.
     unit-cell volume          =    2560.0529 (a.u.)^3
     number of atoms/cell      =            2
     number of atomic types    =            1
     number of electrons       =        28.00
     number of Kohn-Sham states=           16
     kinetic-energy cutoff     =      60.0000  Ry
     charge density cutoff     =     480.0000  Ry
     Exchange-correlation= PBESOL
                           (   1   4  10   8   0   0   0)

     celldm(1)=   8.843918  celldm(2)=   0.000000  celldm(3)=   4.273504
     celldm(4)=   0.000000  celldm(5)=   0.000000  celldm(6)=   0.000000

     crystal axes: (cart. coord. in units of alat)
               a(1) = (   1.000000   0.000000   0.000000 )  
               a(2) = (  -0.500000   0.866025   0.000000 )  
               a(3) = (   0.000000   0.000000   4.273504 )  

     reciprocal axes: (cart. coord. in units 2 pi/alat)
               b(1) = (  1.000000  0.577350 -0.000000 )  
               b(2) = (  0.000000  1.154701  0.000000 )  
               b(3) = (  0.000000 -0.000000  0.234000 )  


     PseudoPot. # 1 for Sn read from file:
     ../pseudo/sn_pbesol_v1.4.uspp.F.UPF
     MD5 check sum: 463fec1d5456f1e96ec1bfcad4b7b038
     Pseudo is Ultrasoft + core correction, Zval = 14.0
     Generated by new atomic code, or converted to UPF format
     Using radial grid of  891 points,  6 beta functions with: 
                l(1) =   0
                l(2) =   0
                l(3) =   1
                l(4) =   1
                l(5) =   2
                l(6) =   2
     Q(r) pseudized with  8 coefficients,  rinner =    1.350   1.350   1.350
                                                       1.350   1.350

     atomic species   valence    mass     pseudopotential
        Sn            14.00   118.71000     Sn( 1.00)

     24 Sym. Ops., with inversion, found



   Cartesian axes

     site n.     atom                  positions (alat units)
         1           Sn  tau(   1) = (   0.0000000   0.5773503   2.1367521  )
         2           Sn  tau(   2) = (   0.5000000   0.2886751   2.1367521  )

     number of k points=   600  Methfessel-Paxton smearing, width (Ry)=  0.0200

     Number of k-points >= 100: set verbosity='high' to print them.

     Dense  grid:   454685 G-vectors     FFT dimensions: (  64,  64, 270)

     Smooth grid:   160699 G-vectors     FFT dimensions: (  45,  45, 192)

     Estimated max dynamical RAM per process >     244.68 MB

     Estimated total dynamical RAM >       1.43 GB
 ----2D----2D----2D----2D----2D----2D----2D----2D----2D----2D----2D----2D
  The code is running with the 2D cutoff
  Please refer to:
  Sohier, T., Calandra, M., & Mauri, F. (2017), 
  Density functional perturbation theory for gated two-dimensional heterostructures:
  Theoretical developments and application to flexural phonons in graphene.
  Physical Review B, 96(7), 75448. https://doi.org/10.1103/PhysRevB.96.075448
 ----2D----2D----2D----2D----2D----2D----2D----2D----2D----2D----2D----2D

     The potential is recalculated from file :
     ../tmp/_ph0/stanene.save/charge-density


     negative rho (up, down):  5.382E-05 0.000E+00
     Starting wfcs are   18 atomic wfcs

     Band Structure Calculation
     Davidson diagonalization with overlap

     ethr =  3.57E-11,  avg # of iterations = 22.6

     total cpu time spent up to now is    13790.8 secs

     End of band structure calculation

     Number of k-points >= 100: set verbosity='high' to print the bands.

     the Fermi energy is    -4.5931 ev

     Writing config to output data dir ../tmp/_ph0/stanene.save/

     phonon calc.                                                               

     bravais-lattice index     =            4
     lattice parameter (alat)  =       8.8439  a.u.
     unit-cell volume          =    2560.0529 (a.u.)^3
     number of atoms/cell      =            2
     number of atomic types    =            1
     kinetic-energy cut-off    =      60.0000  Ry
     charge density cut-off    =     480.0000  Ry
     convergence threshold     =      1.0E-14
     beta                      =       0.7000
     number of iterations used =            4
     Exchange-correlation= PBESOL
                           (   1   4  10   8   0   0   0)


     celldm(1)=    8.84392  celldm(2)=    0.00000  celldm(3)=    4.27350
     celldm(4)=    0.00000  celldm(5)=    0.00000  celldm(6)=    0.00000

     crystal axes: (cart. coord. in units of alat)
               a(1) = (  1.0000  0.0000  0.0000 )  
               a(2) = ( -0.5000  0.8660  0.0000 )  
               a(3) = (  0.0000  0.0000  4.2735 )  

     reciprocal axes: (cart. coord. in units 2 pi/alat)
               b(1) = (  1.0000  0.5774 -0.0000 )  
               b(2) = (  0.0000  1.1547  0.0000 )  
               b(3) = (  0.0000 -0.0000  0.2340 )  


     Atoms inside the unit cell: 

     Cartesian axes

     site n.  atom      mass           positions (alat units)
        1     Sn 118.7100   tau(    1) = (    0.00000    0.57735    2.13675  )
        2     Sn 118.7100   tau(    2) = (    0.50000    0.28868    2.13675  )

     Computing dynamical matrix for 
                    q = (   0.0000000   0.0962250   0.0000000 )

      4 Sym.Ops. (no q -> -q+G )


     G cutoff =  950.9790  (  75785 G-vectors)     FFT grid: ( 64, 64,270)
     G cutoff =  475.4895  (  26786 G-vectors)  smooth grid: ( 45, 45,192)

     number of k points=   600  Methfessel-Paxton smearing, width (Ry)=  0.0200

     PseudoPot. # 1 for Sn read from file:
     ../pseudo/sn_pbesol_v1.4.uspp.F.UPF
     MD5 check sum: 463fec1d5456f1e96ec1bfcad4b7b038
     Pseudo is Ultrasoft + core correction, Zval = 14.0
     Generated by new atomic code, or converted to UPF format
     Using radial grid of  891 points,  6 beta functions with: 
                l(1) =   0
                l(2) =   0
                l(3) =   1
                l(4) =   1
                l(5) =   2
                l(6) =   2
     Q(r) pseudized with  8 coefficients,  rinner =    1.350   1.350   1.350
                                                       1.350   1.350

     Mode symmetry, C_2v (mm2)  point group:


     Atomic displacements:
     There are    6 irreducible representations

     Representation     1      1 modes -  To be done

     Representation     2      1 modes -  To be done

     Representation     3      1 modes -  To be done

     Representation     4      1 modes -  To be done

     Representation     5      1 modes -  To be done

     Representation     6      1 modes -  To be done



     Alpha used in Ewald sum =   2.8000

     negative rho (up, down):  5.382E-05 0.000E+00
     PHONON       :     10h43m CPU     16h29m WALL



     Representation #   1 mode #   1

     Self-consistent Calculation
