
     Program PWSCF v.6.7MaX starts on 19Jan2024 at 21:24:41 

     This program is part of the open-source Quantum ESPRESSO suite
     for quantum simulation of materials; please cite
         "P. Giannozzi et al., J. Phys.:Condens. Matter 21 395502 (2009);
         "P. Giannozzi et al., J. Phys.:Condens. Matter 29 465901 (2017);
          URL http://www.quantum-espresso.org", 
     in publications or presentations arising from this work. More details at
     http://www.quantum-espresso.org/quote

     Parallel version (MPI), running on     6 processors

     MPI processes distributed on     1 nodes
     R & G space division:  proc/nbgrp/npool/nimage =       6
     Waiting for input...
     Reading input from standard input

     Current dimensions of program PWSCF are:
     Max number of different atomic species (ntypx) = 10
     Max number of k-points (npk) =  40000
     Max angular momentum in pseudopotentials (lmaxx) =  3

     Subspace diagonalization in iterative solution of the eigenvalue problem:
     one sub-group per band group will be used
     scalapack distributed-memory algorithm (size of sub-group:  2*  2 procs)


     Parallelization info
     --------------------
     sticks:   dense  smooth     PW     G-vecs:    dense   smooth      PW
     Min         214     214     61                26776    26776    4007
     Max         215     215     62                26799    26799    4017
     Sum        1285    1285    367               160699   160699   24069



     bravais-lattice index     =            4
     lattice parameter (alat)  =       8.8439  a.u.
     unit-cell volume          =    2560.0529 (a.u.)^3
     number of atoms/cell      =            2
     number of atomic types    =            1
     number of electrons       =        28.00
     number of Kohn-Sham states=           18
     kinetic-energy cutoff     =      60.0000  Ry
     charge density cutoff     =     240.0000  Ry
     scf convergence threshold =      1.0E-09
     mixing beta               =       0.7000
     number of iterations used =            8  plain     mixing
     energy convergence thresh.=      1.0E-05
     force convergence thresh. =      1.0E-04
     Exchange-correlation= SLA  PW   PBE  PBE
                           (   1   4   3   4   0   0   0)
     nstep                     =           50


     celldm(1)=   8.843918  celldm(2)=   0.000000  celldm(3)=   4.273504
     celldm(4)=   0.000000  celldm(5)=   0.000000  celldm(6)=   0.000000

     crystal axes: (cart. coord. in units of alat)
               a(1) = (   1.000000   0.000000   0.000000 )  
               a(2) = (  -0.500000   0.866025   0.000000 )  
               a(3) = (   0.000000   0.000000   4.273504 )  

     reciprocal axes: (cart. coord. in units 2 pi/alat)
               b(1) = (  1.000000  0.577350 -0.000000 )  
               b(2) = (  0.000000  1.154701  0.000000 )  
               b(3) = (  0.000000 -0.000000  0.234000 )  


     PseudoPot. # 1 for Sn read from file:
     ../pseudo/Sn_pbe_v1.uspp.F.UPF
     MD5 check sum: 4cf58ce39ec5d5d420df3dd08604eb00
     Pseudo is Ultrasoft + core correction, Zval = 14.0
     Generated by new atomic code, or converted to UPF format
     Using radial grid of  891 points,  6 beta functions with: 
                l(1) =   0
                l(2) =   0
                l(3) =   1
                l(4) =   1
                l(5) =   2
                l(6) =   2
     Q(r) pseudized with  6 coefficients,  rinner =    1.200   1.200   1.200
                                                       1.200   1.200

     atomic species   valence    mass     pseudopotential
        Sn            14.00   118.71000     Sn( 1.00)

      6 Sym. Ops. (no inversion) found



   Cartesian axes

     site n.     atom                  positions (alat units)
         1           Sn  tau(   1) = (   0.0000000   0.5773503   2.1367521  )
         2           Sn  tau(   2) = (   0.5000000   0.2886751   1.7094017  )

     number of k points=    61  Marzari-Vanderbilt smearing, width (Ry)=  0.0200
                       cart. coord. in units 2pi/alat
        k(    1) = (   0.0000000   0.0000000   0.0000000), wk =   0.0034722
        k(    2) = (   0.0000000   0.0481125   0.0000000), wk =   0.0208333
        k(    3) = (   0.0000000   0.0962250   0.0000000), wk =   0.0208333
        k(    4) = (   0.0000000   0.1443376   0.0000000), wk =   0.0208333
        k(    5) = (   0.0000000   0.1924501   0.0000000), wk =   0.0208333
        k(    6) = (   0.0000000   0.2405626   0.0000000), wk =   0.0208333
        k(    7) = (   0.0000000   0.2886751   0.0000000), wk =   0.0208333
        k(    8) = (   0.0000000   0.3367877   0.0000000), wk =   0.0208333
        k(    9) = (   0.0000000   0.3849002   0.0000000), wk =   0.0208333
        k(   10) = (   0.0000000   0.4330127   0.0000000), wk =   0.0208333
        k(   11) = (   0.0000000   0.4811252   0.0000000), wk =   0.0208333
        k(   12) = (   0.0000000   0.5292377   0.0000000), wk =   0.0208333
        k(   13) = (   0.0000000  -0.5773503   0.0000000), wk =   0.0104167
        k(   14) = (   0.0416667   0.0721688   0.0000000), wk =   0.0208333
        k(   15) = (   0.0416667   0.1202813   0.0000000), wk =   0.0416667
        k(   16) = (   0.0416667   0.1683938   0.0000000), wk =   0.0416667
        k(   17) = (   0.0416667   0.2165064   0.0000000), wk =   0.0416667
        k(   18) = (   0.0416667   0.2646189   0.0000000), wk =   0.0416667
        k(   19) = (   0.0416667   0.3127314   0.0000000), wk =   0.0416667
        k(   20) = (   0.0416667   0.3608439   0.0000000), wk =   0.0416667
        k(   21) = (   0.0416667   0.4089564   0.0000000), wk =   0.0416667
        k(   22) = (   0.0416667   0.4570690   0.0000000), wk =   0.0416667
        k(   23) = (   0.0416667   0.5051815   0.0000000), wk =   0.0416667
        k(   24) = (   0.0416667   0.5532940   0.0000000), wk =   0.0416667
        k(   25) = (   0.0833333   0.1443376   0.0000000), wk =   0.0208333
        k(   26) = (   0.0833333   0.1924501   0.0000000), wk =   0.0416667
        k(   27) = (   0.0833333   0.2405626   0.0000000), wk =   0.0416667
        k(   28) = (   0.0833333   0.2886751   0.0000000), wk =   0.0416667
        k(   29) = (   0.0833333   0.3367877   0.0000000), wk =   0.0416667
        k(   30) = (   0.0833333   0.3849002   0.0000000), wk =   0.0416667
        k(   31) = (   0.0833333   0.4330127   0.0000000), wk =   0.0416667
        k(   32) = (   0.0833333   0.4811252   0.0000000), wk =   0.0416667
        k(   33) = (   0.0833333   0.5292377   0.0000000), wk =   0.0416667
        k(   34) = (   0.0833333   0.5773503   0.0000000), wk =   0.0208333
        k(   35) = (   0.1250000   0.2165064   0.0000000), wk =   0.0208333
        k(   36) = (   0.1250000   0.2646189   0.0000000), wk =   0.0416667
        k(   37) = (   0.1250000   0.3127314   0.0000000), wk =   0.0416667
        k(   38) = (   0.1250000   0.3608439   0.0000000), wk =   0.0416667
        k(   39) = (   0.1250000   0.4089564   0.0000000), wk =   0.0416667
        k(   40) = (   0.1250000   0.4570690   0.0000000), wk =   0.0416667
        k(   41) = (   0.1250000   0.5051815   0.0000000), wk =   0.0416667
        k(   42) = (   0.1250000   0.5532940   0.0000000), wk =   0.0416667
        k(   43) = (   0.1666667   0.2886751   0.0000000), wk =   0.0208333
        k(   44) = (   0.1666667   0.3367877   0.0000000), wk =   0.0416667
        k(   45) = (   0.1666667   0.3849002   0.0000000), wk =   0.0416667
        k(   46) = (   0.1666667   0.4330127   0.0000000), wk =   0.0416667
        k(   47) = (   0.1666667   0.4811252   0.0000000), wk =   0.0416667
        k(   48) = (   0.1666667   0.5292377   0.0000000), wk =   0.0416667
        k(   49) = (   0.1666667   0.5773503   0.0000000), wk =   0.0208333
        k(   50) = (   0.2083333   0.3608439   0.0000000), wk =   0.0208333
        k(   51) = (   0.2083333   0.4089564   0.0000000), wk =   0.0416667
        k(   52) = (   0.2083333   0.4570690   0.0000000), wk =   0.0416667
        k(   53) = (   0.2083333   0.5051815   0.0000000), wk =   0.0416667
        k(   54) = (   0.2083333   0.5532940   0.0000000), wk =   0.0416667
        k(   55) = (   0.2500000   0.4330127   0.0000000), wk =   0.0208333
        k(   56) = (   0.2500000   0.4811252   0.0000000), wk =   0.0416667
        k(   57) = (   0.2500000   0.5292377   0.0000000), wk =   0.0416667
        k(   58) = (   0.2500000   0.5773503   0.0000000), wk =   0.0208333
        k(   59) = (   0.2916667   0.5051815   0.0000000), wk =   0.0208333
        k(   60) = (   0.2916667   0.5532940   0.0000000), wk =   0.0416667
        k(   61) = (   0.3333333   0.5773503   0.0000000), wk =   0.0069444

     Dense  grid:   160699 G-vectors     FFT dimensions: (  45,  45, 192)

     Estimated max dynamical RAM per process >     153.55 MB

     Estimated total dynamical RAM >     921.31 MB

     Initial potential from superposition of free atoms

     starting charge   25.99991, renormalised to   28.00000

     negative rho (up, down):  4.192E-03 0.000E+00
     Starting wfcs are   18 randomized atomic wfcs

     total cpu time spent up to now is        3.9 secs

     Self-consistent Calculation

     iteration #  1     ecut=    60.00 Ry     beta= 0.70
     Davidson diagonalization with overlap
     ethr =  1.00E-02,  avg # of iterations =  6.3

     negative rho (up, down):  1.367E-03 0.000E+00

     total cpu time spent up to now is       18.3 secs

     total energy              =    -325.37839580 Ry
     estimated scf accuracy    <       2.51976501 Ry

     iteration #  2     ecut=    60.00 Ry     beta= 0.70
     Davidson diagonalization with overlap
     ethr =  9.00E-03,  avg # of iterations =  2.4

     negative rho (up, down):  1.956E-03 0.000E+00

     total cpu time spent up to now is       31.6 secs

     total energy              =    -326.23997402 Ry
     estimated scf accuracy    <       0.46740812 Ry

     iteration #  3     ecut=    60.00 Ry     beta= 0.70
     Davidson diagonalization with overlap
     ethr =  1.67E-03,  avg # of iterations =  2.0

     negative rho (up, down):  2.266E-03 0.000E+00

     total cpu time spent up to now is       49.0 secs

     total energy              =    -326.32720743 Ry
     estimated scf accuracy    <       0.03513194 Ry

     iteration #  4     ecut=    60.00 Ry     beta= 0.70
     Davidson diagonalization with overlap
     ethr =  1.25E-04,  avg # of iterations =  3.2

     negative rho (up, down):  3.045E-03 0.000E+00

     total cpu time spent up to now is       64.1 secs

     total energy              =    -326.33381583 Ry
     estimated scf accuracy    <       0.00154782 Ry

     iteration #  5     ecut=    60.00 Ry     beta= 0.70
     Davidson diagonalization with overlap
     c_bands:  1 eigenvalues not converged
     ethr =  5.53E-06,  avg # of iterations =  5.3

     negative rho (up, down):  3.074E-03 0.000E+00

     total cpu time spent up to now is       83.9 secs

     total energy              =    -326.33383365 Ry
     estimated scf accuracy    <       0.00167535 Ry

     iteration #  6     ecut=    60.00 Ry     beta= 0.70
     Davidson diagonalization with overlap
     ethr =  5.53E-06,  avg # of iterations =  2.9

     negative rho (up, down):  3.053E-03 0.000E+00

     total cpu time spent up to now is       99.0 secs

     total energy              =    -326.33409689 Ry
     estimated scf accuracy    <       0.00068156 Ry

     iteration #  7     ecut=    60.00 Ry     beta= 0.70
     Davidson diagonalization with overlap
     ethr =  2.43E-06,  avg # of iterations =  1.5

     negative rho (up, down):  3.055E-03 0.000E+00

     total cpu time spent up to now is      111.8 secs

     total energy              =    -326.33416522 Ry
     estimated scf accuracy    <       0.00000673 Ry

     iteration #  8     ecut=    60.00 Ry     beta= 0.70
     Davidson diagonalization with overlap
     ethr =  2.40E-08,  avg # of iterations =  3.2

     negative rho (up, down):  3.056E-03 0.000E+00

     total cpu time spent up to now is      130.1 secs

     total energy              =    -326.33416751 Ry
     estimated scf accuracy    <       0.00000052 Ry

     iteration #  9     ecut=    60.00 Ry     beta= 0.70
     Davidson diagonalization with overlap
     ethr =  1.87E-09,  avg # of iterations =  2.0

     negative rho (up, down):  3.057E-03 0.000E+00

     total cpu time spent up to now is      144.6 secs

     total energy              =    -326.33416751 Ry
     estimated scf accuracy    <       0.00000011 Ry

     iteration # 10     ecut=    60.00 Ry     beta= 0.70
     Davidson diagonalization with overlap
     ethr =  3.89E-10,  avg # of iterations =  2.1

     negative rho (up, down):  3.058E-03 0.000E+00

     total cpu time spent up to now is      159.2 secs

     total energy              =    -326.33416752 Ry
     estimated scf accuracy    <          4.1E-09 Ry

     iteration # 11     ecut=    60.00 Ry     beta= 0.70
     Davidson diagonalization with overlap
     ethr =  1.46E-11,  avg # of iterations =  3.4

     negative rho (up, down):  3.058E-03 0.000E+00

     total cpu time spent up to now is      177.0 secs

     End of self-consistent calculation

          k = 0.0000 0.0000 0.0000 ( 20001 PWs)   bands (ev):

   -23.4266 -23.4266 -23.3907 -23.3858 -23.3858 -23.3464 -23.3437 -23.3437
   -23.3158 -23.3158  -9.9828  -7.0769  -1.9503  -0.9353  -0.9353  -0.2829
     0.9014   1.4209

          k = 0.0000 0.0481 0.0000 ( 20007 PWs)   bands (ev):

   -23.4266 -23.4262 -23.3905 -23.3857 -23.3855 -23.3465 -23.3438 -23.3437
   -23.3162 -23.3158  -9.9702  -7.0772  -1.9444  -1.1426  -0.9663  -0.1033
     0.8382   0.9241

          k = 0.0000 0.0962 0.0000 ( 19993 PWs)   bands (ev):

   -23.4264 -23.4251 -23.3901 -23.3856 -23.3849 -23.3468 -23.3442 -23.3438
   -23.3176 -23.3158  -9.9325  -7.0790  -1.9282  -1.5145  -1.0513   0.1536
     0.7160   1.4984

          k = 0.0000 0.1443 0.0000 ( 20039 PWs)   bands (ev):

   -23.4262 -23.4231 -23.3896 -23.3853 -23.3838 -23.3473 -23.3449 -23.3438
   -23.3198 -23.3159  -9.8703  -7.0850  -1.9200  -1.8904  -1.1730   0.1920
     0.7415   1.0587

          k = 0.0000 0.1925 0.0000 ( 20061 PWs)   bands (ev):

   -23.4259 -23.4205 -23.3892 -23.3844 -23.3823 -23.3482 -23.3458 -23.3439
   -23.3229 -23.3160  -9.7842  -7.0994  -2.2786  -1.8842  -1.3128   0.0205
     0.9137   1.1301

          k = 0.0000 0.2406 0.0000 ( 20045 PWs)   bands (ev):

   -23.4256 -23.4171 -23.3892 -23.3830 -23.3805 -23.3493 -23.3470 -23.3438
   -23.3266 -23.3161  -9.6756  -7.1281  -2.6151  -1.8801  -1.4566  -0.1691
     1.0565   1.8372

          k = 0.0000 0.2887 0.0000 ( 20055 PWs)   bands (ev):

   -23.4252 -23.4132 -23.3893 -23.3810 -23.3783 -23.3508 -23.3484 -23.3438
   -23.3310 -23.3163  -9.5464  -7.1772  -2.9027  -1.9089  -1.5943  -0.3102
     1.1148   1.2168

          k = 0.0000 0.3368 0.0000 ( 20085 PWs)   bands (ev):

   -23.4248 -23.4088 -23.3896 -23.3786 -23.3759 -23.3526 -23.3501 -23.3438
   -23.3357 -23.3164  -9.3995  -7.2519  -3.1315  -1.9827  -1.7188  -0.3754
     1.0737   1.2295

          k = 0.0000 0.3849 0.0000 ( 20131 PWs)   bands (ev):

   -23.4245 -23.4041 -23.3899 -23.3759 -23.3733 -23.3547 -23.3521 -23.3444
   -23.3402 -23.3165  -9.2395  -7.3535  -3.2973  -2.0973  -1.8256  -0.3613
     0.9534   1.2280

          k = 0.0000 0.4330 0.0000 ( 20143 PWs)   bands (ev):

   -23.4242 -23.3994 -23.3902 -23.3731 -23.3706 -23.3569 -23.3543 -23.3474
   -23.3422 -23.3166  -9.0740  -7.4770  -3.4025  -2.2314  -1.9114  -0.2828
     0.7890   1.2189

          k = 0.0000 0.4811 0.0000 ( 20129 PWs)   bands (ev):

   -23.4240 -23.3951 -23.3903 -23.3701 -23.3678 -23.3593 -23.3566 -23.3519
   -23.3426 -23.3167  -8.9168  -7.6078  -3.4574  -2.3572  -1.9741  -0.1607
     0.6082   1.2081

          k = 0.0000 0.5292 0.0000 ( 20120 PWs)   bands (ev):

   -23.4239 -23.3920 -23.3902 -23.3673 -23.3650 -23.3615 -23.3591 -23.3557
   -23.3426 -23.3167  -8.7936  -7.7171  -3.4784  -2.4475  -2.0122  -0.0196
     0.4340   1.1998

          k = 0.0000-0.5774 0.0000 ( 20096 PWs)   bands (ev):

   -23.4238 -23.3912 -23.3897 -23.3655 -23.3631 -23.3628 -23.3610 -23.3574
   -23.3426 -23.3167  -8.7443  -7.7622  -3.4828  -2.4806  -2.0250   0.0702
     0.3337   1.1968

          k = 0.0417 0.0722 0.0000 ( 20005 PWs)   bands (ev):

   -23.4265 -23.4255 -23.3902 -23.3857 -23.3851 -23.3467 -23.3440 -23.3438
   -23.3171 -23.3158  -9.9451  -7.0783  -1.9333  -1.4068  -1.0316   0.1059
     0.7310   0.9714

          k = 0.0417 0.1203 0.0000 ( 20013 PWs)   bands (ev):

   -23.4263 -23.4239 -23.3897 -23.3856 -23.3841 -23.3471 -23.3445 -23.3439
   -23.3189 -23.3159  -9.8951  -7.0821  -1.9144  -1.7572  -1.1514   0.2913
     0.6206   1.0510

          k = 0.0417 0.1684 0.0000 ( 20052 PWs)   bands (ev):

   -23.4260 -23.4216 -23.3892 -23.3851 -23.3827 -23.3479 -23.3452 -23.3440
   -23.3216 -23.3160  -9.8209  -7.0923  -2.1202  -1.8924  -1.2989   0.1959
     0.7380   1.1338

          k = 0.0417 0.2165 0.0000 ( 20055 PWs)   bands (ev):

   -23.4257 -23.4186 -23.3890 -23.3842 -23.3810 -23.3489 -23.3462 -23.3440
   -23.3250 -23.3161  -9.7235  -7.1138  -2.4623  -1.8825  -1.4521   0.0003
     0.9119   1.1976

          k = 0.0417 0.2646 0.0000 ( 20075 PWs)   bands (ev):

   -23.4254 -23.4150 -23.3890 -23.3826 -23.3789 -23.3504 -23.3474 -23.3439
   -23.3290 -23.3162  -9.6045  -7.1527  -2.7665  -1.9021  -1.5928  -0.1701
     1.0356   1.2235

          k = 0.0417 0.3127 0.0000 ( 20077 PWs)   bands (ev):

   -23.4250 -23.4108 -23.3892 -23.3805 -23.3765 -23.3521 -23.3489 -23.3439
   -23.3335 -23.3164  -9.4662  -7.2148  -3.0198  -1.9688  -1.7103  -0.2789
     1.0941   1.1977

          k = 0.0417 0.3608 0.0000 ( 20090 PWs)   bands (ev):

   -23.4246 -23.4063 -23.3895 -23.3781 -23.3739 -23.3541 -23.3507 -23.3441
   -23.3382 -23.3165  -9.3122  -7.3035  -3.2140  -2.0755  -1.8125  -0.3105
     1.0451   1.1707

          k = 0.0417 0.4090 0.0000 ( 20107 PWs)   bands (ev):

   -23.4243 -23.4015 -23.3898 -23.3754 -23.3711 -23.3563 -23.3527 -23.3457
   -23.3418 -23.3166  -9.1484  -7.4175  -3.3477  -2.1982  -1.9087  -0.2690
     0.8990   1.1690

          k = 0.0417 0.4571 0.0000 ( 20118 PWs)   bands (ev):

   -23.4241 -23.3969 -23.3900 -23.3725 -23.3683 -23.3587 -23.3550 -23.3498
   -23.3426 -23.3167  -8.9847  -7.5474  -3.4266  -2.3177  -1.9918  -0.1707
     0.7208   1.1649

          k = 0.0417 0.5052 0.0000 ( 20132 PWs)   bands (ev):

   -23.4239 -23.3930 -23.3901 -23.3696 -23.3655 -23.3611 -23.3574 -23.3540
   -23.3427 -23.3168  -8.8400  -7.6723  -3.4638  -2.4156  -2.0515  -0.0354
     0.5352   1.1597

          k = 0.0417 0.5533 0.0000 ( 20126 PWs)   bands (ev):

   -23.4238 -23.3911 -23.3896 -23.3669 -23.3641 -23.3620 -23.3597 -23.3570
   -23.3427 -23.3168  -8.7481  -7.7554  -3.4761  -2.4718  -2.0822   0.1091
     0.3671   1.1564

          k = 0.0833 0.1443 0.0000 ( 20045 PWs)   bands (ev):

   -23.4261 -23.4220 -23.3892 -23.3855 -23.3828 -23.3478 -23.3449 -23.3441
   -23.3211 -23.3160  -9.8332  -7.0901  -2.0502  -1.8972  -1.3201   0.4452
     0.4886   1.1449

          k = 0.0833 0.1925 0.0000 ( 20059 PWs)   bands (ev):

   -23.4258 -23.4193 -23.3886 -23.3852 -23.3810 -23.3488 -23.3455 -23.3443
   -23.3241 -23.3161  -9.7476  -7.1073  -2.3528  -1.8903  -1.5053   0.2596
     0.6754   1.2196

          k = 0.0833 0.2406 0.0000 ( 20083 PWs)   bands (ev):

   -23.4255 -23.4160 -23.3884 -23.3842 -23.3789 -23.3502 -23.3464 -23.3443
   -23.3277 -23.3163  -9.6397  -7.1390  -2.6407  -1.9225  -1.6584   0.0797
     0.8361   1.2555

          k = 0.0833 0.2887 0.0000 ( 20094 PWs)   bands (ev):

   -23.4251 -23.4121 -23.3884 -23.3827 -23.3765 -23.3520 -23.3476 -23.3443
   -23.3320 -23.3164  -9.5112  -7.1910  -2.8955  -2.0222  -1.7499  -0.0607
     0.9472   1.2391

          k = 0.0833 0.3368 0.0000 ( 20094 PWs)   bands (ev):

   -23.4248 -23.4078 -23.3886 -23.3806 -23.3738 -23.3540 -23.3491 -23.3444
   -23.3366 -23.3166  -9.3651  -7.2679  -3.1046  -2.1516  -1.8224  -0.1399
     1.0068   1.1646

          k = 0.0833 0.3849 0.0000 ( 20088 PWs)   bands (ev):

   -23.4245 -23.4031 -23.3889 -23.3782 -23.3710 -23.3562 -23.3509 -23.3450
   -23.3408 -23.3168  -9.2057  -7.3709  -3.2611  -2.2704  -1.9141  -0.1483
     0.9952   1.0741

          k = 0.0833 0.4330 0.0000 ( 20111 PWs)   bands (ev):

   -23.4242 -23.3984 -23.3892 -23.3755 -23.3682 -23.3586 -23.3531 -23.3480
   -23.3428 -23.3169  -9.0405  -7.4951  -3.3658  -2.3645  -2.0230  -0.0917
     0.8529   1.0626

          k = 0.0833 0.4811 0.0000 ( 20119 PWs)   bands (ev):

   -23.4240 -23.3940 -23.3893 -23.3727 -23.3654 -23.3611 -23.3556 -23.3521
   -23.3431 -23.3170  -8.8828  -7.6265  -3.4260  -2.4295  -2.1297   0.0151
     0.6779   1.0607

          k = 0.0833 0.5292 0.0000 ( 20109 PWs)   bands (ev):

   -23.4238 -23.3908 -23.3892 -23.3698 -23.3644 -23.3619 -23.3582 -23.3556
   -23.3431 -23.3170  -8.7582  -7.7370  -3.4541  -2.4653  -2.2094   0.1564
     0.4981   1.0587

          k = 0.0833 0.5774 0.0000 ( 20128 PWs)   bands (ev):

   -23.4238 -23.3901 -23.3887 -23.3674 -23.3663 -23.3599 -23.3597 -23.3576
   -23.3431 -23.3171  -8.7079  -7.7829  -3.4619  -2.4760  -2.2394   0.3031
     0.3390   1.0579

          k = 0.1250 0.2165 0.0000 ( 20077 PWs)   bands (ev):

   -23.4255 -23.4164 -23.3879 -23.3851 -23.3789 -23.3502 -23.3458 -23.3446
   -23.3273 -23.3163  -9.6514  -7.1346  -2.5837  -1.9417  -1.6908   0.2512
     0.6848   1.2696

          k = 0.1250 0.2646 0.0000 ( 20086 PWs)   bands (ev):

   -23.4252 -23.4128 -23.3874 -23.3844 -23.3764 -23.3519 -23.3465 -23.3448
   -23.3312 -23.3165  -9.5338  -7.1794  -2.8001  -2.0993  -1.7706   0.1615
     0.7571   1.2819

          k = 0.1250 0.3127 0.0000 ( 20092 PWs)   bands (ev):

   -23.4249 -23.4087 -23.3874 -23.3829 -23.3738 -23.3540 -23.3477 -23.3449
   -23.3354 -23.3167  -9.3971  -7.2466  -2.9919  -2.2778  -1.8209   0.0729
     0.8083   1.2604

          k = 0.1250 0.3608 0.0000 ( 20080 PWs)   bands (ev):

   -23.4245 -23.4042 -23.3876 -23.3809 -23.3709 -23.3562 -23.3493 -23.3452
   -23.3398 -23.3169  -9.2447  -7.3388  -3.1511  -2.4221  -1.8957   0.0264
     0.8149   1.2078

          k = 0.1250 0.4090 0.0000 ( 20114 PWs)   bands (ev):

   -23.4243 -23.3995 -23.3879 -23.3784 -23.3680 -23.3587 -23.3514 -23.3468
   -23.3429 -23.3171  -9.0819  -7.4546  -3.2733  -2.5182  -2.0034   0.0332
     0.7849   1.1330

          k = 0.1250 0.4571 0.0000 ( 20113 PWs)   bands (ev):

   -23.4240 -23.3948 -23.3881 -23.3758 -23.3651 -23.3613 -23.3541 -23.3501
   -23.3436 -23.3173  -8.9182  -7.5855  -3.3590  -2.5622  -2.1342   0.0861
     0.7292   1.0549

          k = 0.1250 0.5052 0.0000 ( 20113 PWs)   bands (ev):

   -23.4239 -23.3908 -23.3882 -23.3729 -23.3644 -23.3619 -23.3574 -23.3533
   -23.3438 -23.3174  -8.7715  -7.7122  -3.4122  -2.5541  -2.2706   0.1647
     0.6571   0.9937

          k = 0.1250 0.5533 0.0000 ( 20114 PWs)   bands (ev):

   -23.4238 -23.3889 -23.3876 -23.3700 -23.3670 -23.3601 -23.3590 -23.3561
   -23.3438 -23.3174  -8.6764  -7.7982  -3.4374  -2.5003  -2.3923   0.2328
     0.5943   0.9616

          k = 0.1667 0.2887 0.0000 ( 20089 PWs)   bands (ev):

   -23.4249 -23.4090 -23.3864 -23.3843 -23.3737 -23.3540 -23.3470 -23.3454
   -23.3350 -23.3168  -9.4079  -7.2395  -2.9359  -2.3439  -1.8187   0.1963
     0.6900   1.2986

          k = 0.1667 0.3368 0.0000 ( 20084 PWs)   bands (ev):

   -23.4246 -23.4048 -23.3860 -23.3832 -23.3709 -23.3563 -23.3481 -23.3457
   -23.3392 -23.3170  -9.2644  -7.3225  -3.0516  -2.5563  -1.8804   0.1941
     0.6335   1.3045

          k = 0.1667 0.3849 0.0000 ( 20093 PWs)   bands (ev):

   -23.4243 -23.4002 -23.3861 -23.3812 -23.3679 -23.3588 -23.3501 -23.3463
   -23.3428 -23.3173  -9.1074  -7.4290  -3.1576  -2.6979  -1.9738   0.1821
     0.5956   1.2797

          k = 0.1667 0.4330 0.0000 ( 20113 PWs)   bands (ev):

   -23.4241 -23.3954 -23.3863 -23.3787 -23.3650 -23.3614 -23.3530 -23.3484
   -23.3444 -23.3175  -8.9434  -7.5547  -3.2590  -2.7546  -2.0976   0.1704
     0.5953   1.2147

          k = 0.1667 0.4811 0.0000 ( 20107 PWs)   bands (ev):

   -23.4239 -23.3909 -23.3865 -23.3760 -23.3644 -23.3619 -23.3568 -23.3511
   -23.3446 -23.3177  -8.7843  -7.6879  -3.3450  -2.7374  -2.2407   0.1573
     0.6442   1.1158

          k = 0.1667 0.5292 0.0000 ( 20106 PWs)   bands (ev):

   -23.4238 -23.3876 -23.3864 -23.3731 -23.3672 -23.3604 -23.3590 -23.3536
   -23.3447 -23.3178  -8.6547  -7.8029  -3.4015  -2.6682  -2.3848   0.1455
     0.7346   0.9972

          k = 0.1667 0.5774 0.0000 ( 20103 PWs)   bands (ev):

   -23.4238 -23.3870 -23.3856 -23.3706 -23.3697 -23.3618 -23.3567 -23.3558
   -23.3447 -23.3178  -8.6005  -7.8525  -3.4210  -2.6004  -2.4777   0.1407
     0.8198   0.9031

          k = 0.2083 0.3608 0.0000 ( 20087 PWs)   bands (ev):

   -23.4243 -23.4004 -23.3846 -23.3830 -23.3679 -23.3588 -23.3495 -23.3463
   -23.3427 -23.3174  -9.1160  -7.4202  -3.0801  -2.8002  -1.9617   0.2994
     0.4599   1.3402

          k = 0.2083 0.4090 0.0000 ( 20099 PWs)   bands (ev):

   -23.4241 -23.3957 -23.3843 -23.3814 -23.3649 -23.3615 -23.3525 -23.3472
   -23.3451 -23.3177  -8.9564  -7.5382  -3.1285  -2.9415  -2.0707   0.2705
     0.4449   1.3341

          k = 0.2083 0.4571 0.0000 ( 20115 PWs)   bands (ev):

   -23.4239 -23.3910 -23.3844 -23.3790 -23.3644 -23.3619 -23.3565 -23.3490
   -23.3458 -23.3179  -8.7934  -7.6703  -3.2506  -2.9215  -2.2031   0.1485
     0.5706   1.2753

          k = 0.2083 0.5052 0.0000 ( 20122 PWs)   bands (ev):

   -23.4238 -23.3868 -23.3845 -23.3763 -23.3674 -23.3606 -23.3590 -23.3513
   -23.3459 -23.3181  -8.6420  -7.8016  -3.3545  -2.8366  -2.3462   0.0618
     0.7152   1.1718

          k = 0.2083 0.5533 0.0000 ( 20133 PWs)   bands (ev):

   -23.4237 -23.3848 -23.3836 -23.3734 -23.3703 -23.3635 -23.3563 -23.3536
   -23.3459 -23.3182  -8.5374  -7.8964  -3.4090  -2.7414  -2.4698   0.0177
     0.8615   1.0441

          k = 0.2500 0.4330 0.0000 ( 20133 PWs)   bands (ev):

   -23.4239 -23.3911 -23.3825 -23.3813 -23.3644 -23.3619 -23.3563 -23.3476
   -23.3469 -23.3180  -8.7966  -7.6639  -3.1679  -3.0366  -2.1879   0.1448
     0.5400   1.3387

          k = 0.2500 0.4811 0.0000 ( 20115 PWs)   bands (ev):

   -23.4238 -23.3864 -23.3822 -23.3792 -23.3674 -23.3607 -23.3590 -23.3492
   -23.3474 -23.3183  -8.6363  -7.7993  -3.3106  -2.9466  -2.3201   0.0100
     0.6932   1.2860

          k = 0.2500 0.5292 0.0000 ( 20109 PWs)   bands (ev):

   -23.4237 -23.3825 -23.3821 -23.3764 -23.3704 -23.3647 -23.3562 -23.3513
   -23.3474 -23.3185  -8.4947  -7.9257  -3.4019  -2.8357  -2.4529  -0.0762
     0.8476   1.1898

          k = 0.2500 0.5774 0.0000 ( 20109 PWs)   bands (ev):

   -23.4237 -23.3823 -23.3804 -23.3739 -23.3730 -23.3666 -23.3540 -23.3533
   -23.3474 -23.3185  -8.4275  -7.9878  -3.4329  -2.7669  -2.5289  -0.1055
     0.9450   1.1111

          k = 0.2917 0.5052 0.0000 ( 20105 PWs)   bands (ev):

   -23.4237 -23.3818 -23.3799 -23.3790 -23.3705 -23.3651 -23.3562 -23.3492
   -23.3491 -23.3186  -8.4795  -7.9361  -3.3996  -2.8685  -2.4450  -0.1109
     0.8434   1.2417

          k = 0.2917 0.5533 0.0000 ( 20115 PWs)   bands (ev):

   -23.4237 -23.3796 -23.3779 -23.3766 -23.3735 -23.3690 -23.3537 -23.3513
   -23.3492 -23.3187  -8.3462  -8.0590  -3.4532  -2.7670  -2.5612  -0.1765
     0.9786   1.1605

          k = 0.3333 0.5774 0.0000 ( 20085 PWs)   bands (ev):

   -23.4237 -23.3771 -23.3771 -23.3757 -23.3735 -23.3734 -23.3515 -23.3515
   -23.3509 -23.3188  -8.2000  -8.2000  -3.4739  -2.6688  -2.6688  -0.2124
     1.0871   1.0871

     the Fermi energy is    -2.0914 ev

!    total energy              =    -326.33416752 Ry
     estimated scf accuracy    <          1.5E-10 Ry
     smearing contrib. (-TS)   =      -0.00070771 Ry
     internal energy E=F+TS    =    -326.33345982 Ry

     The total energy is F=E-TS. E is the sum of the following terms:
     one-electron contribution =    -762.98373823 Ry
     hartree contribution      =     389.16030203 Ry
     xc contribution           =     -94.73444950 Ry
     ewald contribution        =     142.22442588 Ry

     convergence has been achieved in  11 iterations

     negative rho (up, down):  3.058E-03 0.000E+00

     Forces acting on atoms (cartesian axes, Ry/au):

     atom    1 type  1   force =     0.00000000    0.00000000   -0.04442060
     atom    2 type  1   force =     0.00000000   -0.00000000    0.04442060

     Total force =     0.044421     Total SCF correction =     0.000006

     BFGS Geometry Optimization
     Energy error            =      0.0E+00
     Gradient error          =      4.4E-02

     number of scf cycles    =   1
     number of bfgs steps    =   0

     energy   new            =    -326.3341675249 Ry

     new trust radius        =       0.0444205997 bohr
     new conv_thr            =       0.0000000010 Ry


ATOMIC_POSITIONS (crystal)
Sn            0.3333333330        0.6666666660        0.5000000000    0   0   0
Sn            0.6666666660        0.3333333330        0.4011753185



     Writing output data file ../tmp/stanene.save/
     NEW-OLD atomic charge density approx. for the potential

     negative rho (up, down):  3.082E-03 0.000E+00

     total cpu time spent up to now is      179.4 secs

     Self-consistent Calculation

     iteration #  1     ecut=    60.00 Ry     beta= 0.70
     Davidson diagonalization with overlap
     ethr =  1.00E-06,  avg # of iterations =  5.2

     negative rho (up, down):  3.097E-03 0.000E+00

     total cpu time spent up to now is      210.6 secs

     total energy              =    -326.33523141 Ry
     estimated scf accuracy    <       0.00138760 Ry

     iteration #  2     ecut=    60.00 Ry     beta= 0.70
     Davidson diagonalization with overlap
     ethr =  4.96E-06,  avg # of iterations =  4.2

     negative rho (up, down):  3.092E-03 0.000E+00

     total cpu time spent up to now is      229.4 secs

     total energy              =    -326.33369072 Ry
     estimated scf accuracy    <       0.02182263 Ry

     iteration #  3     ecut=    60.00 Ry     beta= 0.70
     Davidson diagonalization with overlap
     ethr =  4.96E-06,  avg # of iterations =  3.5

     negative rho (up, down):  3.087E-03 0.000E+00

     total cpu time spent up to now is      245.8 secs

     total energy              =    -326.33614052 Ry
     estimated scf accuracy    <       0.00006992 Ry

     iteration #  4     ecut=    60.00 Ry     beta= 0.70
     Davidson diagonalization with overlap
     ethr =  2.50E-07,  avg # of iterations =  2.0

     negative rho (up, down):  3.086E-03 0.000E+00

     total cpu time spent up to now is      259.7 secs

     total energy              =    -326.33615587 Ry
     estimated scf accuracy    <       0.00000135 Ry

     iteration #  5     ecut=    60.00 Ry     beta= 0.70
     Davidson diagonalization with overlap
     ethr =  4.82E-09,  avg # of iterations =  2.4

     negative rho (up, down):  3.087E-03 0.000E+00

     total cpu time spent up to now is      276.2 secs

     total energy              =    -326.33615624 Ry
     estimated scf accuracy    <       0.00000012 Ry

     iteration #  6     ecut=    60.00 Ry     beta= 0.70
     Davidson diagonalization with overlap
     ethr =  4.17E-10,  avg # of iterations =  2.0

     negative rho (up, down):  3.087E-03 0.000E+00

     total cpu time spent up to now is      290.5 secs

     total energy              =    -326.33615626 Ry
     estimated scf accuracy    <          7.4E-09 Ry

     iteration #  7     ecut=    60.00 Ry     beta= 0.70
     Davidson diagonalization with overlap
     ethr =  2.64E-11,  avg # of iterations =  2.7

     negative rho (up, down):  3.087E-03 0.000E+00

     total cpu time spent up to now is      307.3 secs

     total energy              =    -326.33615626 Ry
     estimated scf accuracy    <          2.6E-09 Ry

     iteration #  8     ecut=    60.00 Ry     beta= 0.70
     Davidson diagonalization with overlap
     ethr =  9.16E-12,  avg # of iterations =  2.0

     negative rho (up, down):  3.087E-03 0.000E+00

     total cpu time spent up to now is      321.0 secs

     End of self-consistent calculation

          k = 0.0000 0.0000 0.0000 ( 20001 PWs)   bands (ev):

   -23.4168 -23.4168 -23.3812 -23.3732 -23.3732 -23.3353 -23.3288 -23.3288
   -23.3012 -23.3012 -10.0005  -7.0398  -1.9205  -0.9527  -0.9527  -0.2885
     0.9189   0.9189

          k = 0.0000 0.0481 0.0000 ( 20007 PWs)   bands (ev):

   -23.4167 -23.4164 -23.3810 -23.3732 -23.3730 -23.3354 -23.3290 -23.3289
   -23.3017 -23.3012  -9.9879  -7.0403  -1.9147  -1.1599  -0.9837  -0.1079
     0.8561   0.9423

          k = 0.0000 0.0962 0.0000 ( 19993 PWs)   bands (ev):

   -23.4166 -23.4152 -23.3806 -23.3731 -23.3723 -23.3356 -23.3294 -23.3290
   -23.3031 -23.3013  -9.9500  -7.0427  -1.8988  -1.5324  -1.0690   0.1533
     0.7346   1.0035

          k = 0.0000 0.1443 0.0000 ( 20039 PWs)   bands (ev):

   -23.4164 -23.4131 -23.3799 -23.3729 -23.3712 -23.3361 -23.3301 -23.3291
   -23.3054 -23.3013  -9.8874  -7.0498  -1.9272  -1.8726  -1.1908   0.2007
     0.7580   1.0820

          k = 0.0000 0.1925 0.0000 ( 20061 PWs)   bands (ev):

   -23.4161 -23.4104 -23.3793 -23.3723 -23.3696 -23.3368 -23.3311 -23.3293
   -23.3086 -23.3014  -9.8009  -7.0660  -2.2961  -1.8566  -1.3310   0.0351
     0.9316   1.1572

          k = 0.0000 0.2406 0.0000 ( 20045 PWs)   bands (ev):

   -23.4157 -23.4069 -23.3788 -23.3712 -23.3677 -23.3378 -23.3324 -23.3294
   -23.3125 -23.3015  -9.6917  -7.0971  -2.6312  -1.8540  -1.4752  -0.1513
     1.0782   1.2153

          k = 0.0000 0.2887 0.0000 ( 20055 PWs)   bands (ev):

   -23.4153 -23.4028 -23.3786 -23.3695 -23.3655 -23.3392 -23.3339 -23.3296
   -23.3169 -23.3016  -9.5618  -7.1496  -2.9164  -1.8847  -1.6132  -0.2896
     1.1395   1.2512

          k = 0.0000 0.3368 0.0000 ( 20085 PWs)   bands (ev):

   -23.4150 -23.3983 -23.3786 -23.3673 -23.3629 -23.3409 -23.3357 -23.3299
   -23.3217 -23.3018  -9.4140  -7.2283  -3.1420  -1.9606  -1.7381  -0.3527
     1.1002   1.2667

          k = 0.0000 0.3849 0.0000 ( 20131 PWs)   bands (ev):

   -23.4146 -23.3934 -23.3788 -23.3648 -23.3602 -23.3429 -23.3378 -23.3311
   -23.3259 -23.3019  -9.2529  -7.3344  -3.3039  -2.0770  -1.8452  -0.3375
     0.9809   1.2674

          k = 0.0000 0.4330 0.0000 ( 20143 PWs)   bands (ev):

   -23.4144 -23.3885 -23.3788 -23.3620 -23.3573 -23.3450 -23.3402 -23.3347
   -23.3278 -23.3019  -9.0862  -7.4626  -3.4052  -2.2124  -1.9312  -0.2592
     0.8179   1.2598

          k = 0.0000 0.4811 0.0000 ( 20129 PWs)   bands (ev):

   -23.4141 -23.3842 -23.3787 -23.3590 -23.3544 -23.3473 -23.3427 -23.3394
   -23.3282 -23.3020  -8.9276  -7.5974  -3.4566  -2.3392  -1.9940  -0.1391
     0.6399   1.2500

          k = 0.0000 0.5292 0.0000 ( 20120 PWs)   bands (ev):

   -23.4140 -23.3815 -23.3780 -23.3562 -23.3514 -23.3495 -23.3454 -23.3433
   -23.3283 -23.3020  -8.8033  -7.7097  -3.4752  -2.4303  -2.0322  -0.0032
     0.4714   1.2423

          k = 0.0000-0.5774 0.0000 ( 20096 PWs)   bands (ev):

   -23.4140 -23.3809 -23.3774 -23.3545 -23.3509 -23.3491 -23.3476 -23.3450
   -23.3283 -23.3020  -8.7535  -7.7559  -3.4788  -2.4636  -2.0450   0.0785
     0.3793   1.2395

          k = 0.0417 0.0722 0.0000 ( 20005 PWs)   bands (ev):

   -23.4166 -23.4156 -23.3807 -23.3732 -23.3725 -23.3355 -23.3292 -23.3290
   -23.3026 -23.3012  -9.9626  -7.0417  -1.9038  -1.4246  -1.0491   0.1037
     0.7496   0.9911

          k = 0.0417 0.1203 0.0000 ( 20013 PWs)   bands (ev):

   -23.4165 -23.4139 -23.3801 -23.3731 -23.3715 -23.3359 -23.3298 -23.3291
   -23.3045 -23.3013  -9.9124  -7.0465  -1.8855  -1.7753  -1.1688   0.2949
     0.6388   1.0736

          k = 0.0417 0.1684 0.0000 ( 20052 PWs)   bands (ev):

   -23.4162 -23.4115 -23.3795 -23.3728 -23.3701 -23.3365 -23.3306 -23.3293
   -23.3072 -23.3014  -9.8378  -7.0581  -2.1381  -1.8645  -1.3163   0.2092
     0.7533   1.1599

          k = 0.0417 0.2165 0.0000 ( 20055 PWs)   bands (ev):

   -23.4159 -23.4084 -23.3789 -23.3721 -23.3683 -23.3374 -23.3317 -23.3295
   -23.3107 -23.3015  -9.7399  -7.0817  -2.4793  -1.8562  -1.4691   0.0173
     0.9306   1.2273

          k = 0.0417 0.2646 0.0000 ( 20075 PWs)   bands (ev):

   -23.4155 -23.4046 -23.3785 -23.3708 -23.3662 -23.3387 -23.3330 -23.3296
   -23.3149 -23.3016  -9.6202  -7.1235  -2.7815  -1.8793  -1.6082  -0.1505
     1.0588   1.2562

          k = 0.0417 0.3127 0.0000 ( 20077 PWs)   bands (ev):

   -23.4151 -23.4003 -23.3784 -23.3689 -23.3637 -23.3402 -23.3347 -23.3298
   -23.3196 -23.3018  -9.4811  -7.1893  -3.0319  -1.9516  -1.7226  -0.2569
     1.1198   1.2332

          k = 0.0417 0.3608 0.0000 ( 20090 PWs)   bands (ev):

   -23.4148 -23.3956 -23.3785 -23.3666 -23.3610 -23.3421 -23.3366 -23.3304
   -23.3242 -23.3019  -9.3261  -7.2824  -3.2226  -2.0617  -1.8237  -0.2867
     1.0719   1.2087

          k = 0.0417 0.4090 0.0000 ( 20107 PWs)   bands (ev):

   -23.4145 -23.3907 -23.3786 -23.3640 -23.3582 -23.3443 -23.3388 -23.3327
   -23.3273 -23.3020  -9.1611  -7.4010  -3.3523  -2.1844  -1.9220  -0.2442
     0.9271   1.2084

          k = 0.0417 0.4571 0.0000 ( 20118 PWs)   bands (ev):

   -23.4142 -23.3860 -23.3786 -23.3611 -23.3552 -23.3466 -23.3412 -23.3371
   -23.3282 -23.3021  -8.9961  -7.5352  -3.4275  -2.3025  -2.0080  -0.1464
     0.7503   1.2058

          k = 0.0417 0.5052 0.0000 ( 20132 PWs)   bands (ev):

   -23.4141 -23.3823 -23.3782 -23.3582 -23.3523 -23.3489 -23.3438 -23.3415
   -23.3284 -23.3021  -8.8501  -7.6637  -3.4619  -2.3993  -2.0698  -0.0134
     0.5676   1.2018

          k = 0.0417 0.5533 0.0000 ( 20126 PWs)   bands (ev):

   -23.4140 -23.3808 -23.3773 -23.3555 -23.3514 -23.3491 -23.3464 -23.3446
   -23.3285 -23.3021  -8.7573  -7.7489  -3.4725  -2.4550  -2.1015   0.1233
     0.4074   1.1991

          k = 0.0833 0.1443 0.0000 ( 20045 PWs)   bands (ev):

   -23.4162 -23.4119 -23.3795 -23.3730 -23.3703 -23.3364 -23.3304 -23.3293
   -23.3067 -23.3014  -9.8502  -7.0557  -2.0685  -1.8691  -1.3367   0.4664
     0.4941   1.1711

          k = 0.0833 0.1925 0.0000 ( 20059 PWs)   bands (ev):

   -23.4159 -23.4092 -23.3788 -23.3727 -23.3685 -23.3372 -23.3312 -23.3296
   -23.3098 -23.3015  -9.7642  -7.0747  -2.3704  -1.8646  -1.5201   0.2794
     0.6883   1.2495

          k = 0.0833 0.2406 0.0000 ( 20083 PWs)   bands (ev):

   -23.4156 -23.4057 -23.3782 -23.3720 -23.3664 -23.3384 -23.3323 -23.3298
   -23.3136 -23.3017  -9.6556  -7.1089  -2.6567  -1.9053  -1.6661   0.1006
     0.8552   1.2880

          k = 0.0833 0.2887 0.0000 ( 20094 PWs)   bands (ev):

   -23.4153 -23.4017 -23.3778 -23.3708 -23.3639 -23.3400 -23.3336 -23.3300
   -23.3180 -23.3018  -9.5264  -7.1642  -2.9091  -2.0174  -1.7473  -0.0379
     0.9728   1.2717

          k = 0.0833 0.3368 0.0000 ( 20094 PWs)   bands (ev):

   -23.4149 -23.3972 -23.3777 -23.3689 -23.3612 -23.3418 -23.3353 -23.3304
   -23.3226 -23.3020  -9.3793  -7.2451  -3.1148  -2.1516  -1.8175  -0.1148
     1.0393   1.1945

          k = 0.0833 0.3849 0.0000 ( 20088 PWs)   bands (ev):

   -23.4146 -23.3923 -23.3778 -23.3666 -23.3584 -23.3440 -23.3372 -23.3316
   -23.3267 -23.3021  -9.2188  -7.3526  -3.2677  -2.2706  -1.9113  -0.1213
     1.0326   1.1017

          k = 0.0833 0.4330 0.0000 ( 20111 PWs)   bands (ev):

   -23.4143 -23.3874 -23.3779 -23.3639 -23.3554 -23.3464 -23.3396 -23.3350
   -23.3284 -23.3022  -9.0523  -7.4813  -3.3686  -2.3623  -2.0246  -0.0635
     0.8836   1.0987

          k = 0.0833 0.4811 0.0000 ( 20119 PWs)   bands (ev):

   -23.4141 -23.3831 -23.3778 -23.3610 -23.3525 -23.3488 -23.3424 -23.3392
   -23.3288 -23.3023  -8.8933  -7.6166  -3.4258  -2.4226  -2.1372   0.0440
     0.7065   1.1008

          k = 0.0833 0.5292 0.0000 ( 20109 PWs)   bands (ev):

   -23.4140 -23.3804 -23.3770 -23.3581 -23.3518 -23.3491 -23.3453 -23.3427
   -23.3289 -23.3024  -8.7675  -7.7301  -3.4519  -2.4523  -2.2235   0.1858
     0.5255   1.1010

          k = 0.0833 0.5774 0.0000 ( 20128 PWs)   bands (ev):

   -23.4139 -23.3798 -23.3763 -23.3561 -23.3535 -23.3470 -23.3466 -23.3451
   -23.3289 -23.3024  -8.7167  -7.7771  -3.4590  -2.4597  -2.2572   0.3476
     0.3513   1.1009

          k = 0.1250 0.2165 0.0000 ( 20077 PWs)   bands (ev):

   -23.4157 -23.4061 -23.3780 -23.3726 -23.3664 -23.3383 -23.3319 -23.3300
   -23.3132 -23.3017  -9.6674  -7.1042  -2.6002  -1.9286  -1.6935   0.2759
     0.6990   1.3022

          k = 0.1250 0.2646 0.0000 ( 20086 PWs)   bands (ev):

   -23.4153 -23.4024 -23.3772 -23.3721 -23.3640 -23.3399 -23.3329 -23.3303
   -23.3171 -23.3019  -9.5492  -7.1519  -2.8146  -2.1015  -1.7595   0.1876
     0.7787   1.3147

          k = 0.1250 0.3127 0.0000 ( 20092 PWs)   bands (ev):

   -23.4150 -23.3981 -23.3768 -23.3709 -23.3612 -23.3417 -23.3342 -23.3307
   -23.3215 -23.3021  -9.4116  -7.2228  -3.0035  -2.2842  -1.8077   0.1006
     0.8384   1.2908

          k = 0.1250 0.3608 0.0000 ( 20080 PWs)   bands (ev):

   -23.4147 -23.3934 -23.3766 -23.3690 -23.3584 -23.3439 -23.3359 -23.3313
   -23.3259 -23.3023  -9.2581  -7.3192  -3.1592  -2.4294  -1.8841   0.0562
     0.8513   1.2354

          k = 0.1250 0.4090 0.0000 ( 20114 PWs)   bands (ev):

   -23.4144 -23.3886 -23.3767 -23.3667 -23.3554 -23.3463 -23.3382 -23.3334
   -23.3286 -23.3025  -9.0941  -7.4394  -3.2780  -2.5250  -1.9943   0.0652
     0.8232   1.1608

          k = 0.1250 0.4571 0.0000 ( 20113 PWs)   bands (ev):

   -23.4142 -23.3838 -23.3767 -23.3641 -23.3524 -23.3489 -23.3412 -23.3369
   -23.3294 -23.3026  -8.9290  -7.5745  -3.3609  -2.5673  -2.1279   0.1203
     0.7640   1.0871

          k = 0.1250 0.5052 0.0000 ( 20113 PWs)   bands (ev):

   -23.4140 -23.3800 -23.3763 -23.3612 -23.3519 -23.3491 -23.3447 -23.3402
   -23.3295 -23.3027  -8.7809  -7.7047  -3.4121  -2.5564  -2.2677   0.2021
     0.6843   1.0326

          k = 0.1250 0.5533 0.0000 ( 20114 PWs)   bands (ev):

   -23.4139 -23.3785 -23.3752 -23.3584 -23.3545 -23.3474 -23.3461 -23.3431
   -23.3296 -23.3027  -8.6848  -7.7927  -3.4364  -2.4968  -2.3952   0.2746
     0.6137   1.0052

          k = 0.1667 0.2887 0.0000 ( 20089 PWs)   bands (ev):

   -23.4150 -23.3984 -23.3762 -23.3718 -23.3612 -23.3417 -23.3337 -23.3308
   -23.3211 -23.3021  -9.4224  -7.2153  -2.9481  -2.3516  -1.8035   0.2264
     0.7176   1.3296

          k = 0.1667 0.3368 0.0000 ( 20084 PWs)   bands (ev):

   -23.4147 -23.3940 -23.3754 -23.3709 -23.3583 -23.3439 -23.3350 -23.3314
   -23.3253 -23.3024  -9.2779  -7.3023  -3.0608  -2.5655  -1.8658   0.2265
     0.6675   1.3341

          k = 0.1667 0.3849 0.0000 ( 20093 PWs)   bands (ev):

   -23.4144 -23.3892 -23.3751 -23.3692 -23.3553 -23.3464 -23.3372 -23.3323
   -23.3289 -23.3026  -9.1198  -7.4129  -3.1636  -2.7074  -1.9609   0.2167
     0.6333   1.3094

          k = 0.1667 0.4330 0.0000 ( 20113 PWs)   bands (ev):

   -23.4142 -23.3844 -23.3751 -23.3669 -23.3523 -23.3490 -23.3403 -23.3348
   -23.3302 -23.3029  -8.9544  -7.5428  -3.2628  -2.7631  -2.0865   0.2075
     0.6336   1.2457

          k = 0.1667 0.4811 0.0000 ( 20107 PWs)   bands (ev):

   -23.4140 -23.3799 -23.3749 -23.3643 -23.3520 -23.3491 -23.3443 -23.3376
   -23.3305 -23.3030  -8.7939  -7.6798  -3.3477  -2.7443  -2.2309   0.1967
     0.6810   1.1492

          k = 0.1667 0.5292 0.0000 ( 20106 PWs)   bands (ev):

   -23.4139 -23.3770 -23.3741 -23.3614 -23.3548 -23.3479 -23.3461 -23.3404
   -23.3306 -23.3031  -8.6629  -7.7976  -3.4037  -2.6747  -2.3749   0.1864
     0.7681   1.0343

          k = 0.1667 0.5774 0.0000 ( 20103 PWs)   bands (ev):

   -23.4139 -23.3765 -23.3732 -23.3594 -23.3569 -23.3494 -23.3436 -23.3428
   -23.3306 -23.3032  -8.6081  -7.8483  -3.4231  -2.6112  -2.4632   0.1821
     0.8452   0.9487

          k = 0.2083 0.3608 0.0000 ( 20087 PWs)   bands (ev):

   -23.4145 -23.3895 -23.3741 -23.3706 -23.3553 -23.3464 -23.3368 -23.3320
   -23.3290 -23.3027  -9.1284  -7.4038  -3.0864  -2.8105  -1.9478   0.3353
     0.4967   1.3714

          k = 0.2083 0.4090 0.0000 ( 20099 PWs)   bands (ev):

   -23.4142 -23.3846 -23.3734 -23.3693 -23.3522 -23.3491 -23.3399 -23.3331
   -23.3313 -23.3030  -8.9676  -7.5258  -3.1333  -2.9508  -2.0581   0.3088
     0.4835   1.3678

          k = 0.2083 0.4571 0.0000 ( 20115 PWs)   bands (ev):

   -23.4140 -23.3798 -23.3731 -23.3671 -23.3520 -23.3491 -23.3440 -23.3354
   -23.3318 -23.3033  -8.8030  -7.6617  -3.2571  -2.9269  -2.1916   0.1881
     0.6107   1.3112

          k = 0.2083 0.5052 0.0000 ( 20122 PWs)   bands (ev):

   -23.4139 -23.3758 -23.3727 -23.3645 -23.3550 -23.3482 -23.3461 -23.3378
   -23.3319 -23.3034  -8.6500  -7.7963  -3.3614  -2.8400  -2.3352   0.1020
     0.7565   1.2090

          k = 0.2083 0.5533 0.0000 ( 20133 PWs)   bands (ev):

   -23.4138 -23.3742 -23.3712 -23.3618 -23.3578 -23.3511 -23.3432 -23.3404
   -23.3320 -23.3035  -8.5442  -7.8931  -3.4160  -2.7455  -2.4575   0.0583
     0.9049   1.0804

          k = 0.2500 0.4330 0.0000 ( 20133 PWs)   bands (ev):

   -23.4140 -23.3798 -23.3717 -23.3689 -23.3520 -23.3491 -23.3439 -23.3335
   -23.3334 -23.3034  -8.8063  -7.6552  -3.1800  -3.0369  -2.1760   0.1843
     0.5809   1.3765

          k = 0.2500 0.4811 0.0000 ( 20115 PWs)   bands (ev):

   -23.4139 -23.3752 -23.3708 -23.3672 -23.3550 -23.3483 -23.3461 -23.3356
   -23.3336 -23.3036  -8.6443  -7.7939  -3.3227  -2.9453  -2.3090   0.0500
     0.7361   1.3266

          k = 0.2500 0.5292 0.0000 ( 20109 PWs)   bands (ev):

   -23.4138 -23.3720 -23.3696 -23.3647 -23.3580 -23.3524 -23.3432 -23.3379
   -23.3336 -23.3038  -8.5011  -7.9230  -3.4139  -2.8338  -2.4420  -0.0359
     0.8923   1.2313

          k = 0.2500 0.5774 0.0000 ( 20109 PWs)   bands (ev):

   -23.4138 -23.3715 -23.3681 -23.3628 -23.3601 -23.3543 -23.3408 -23.3400
   -23.3336 -23.3039  -8.4330  -7.9863  -3.4448  -2.7655  -2.5174  -0.0651
     0.9919   1.1512

          k = 0.2917 0.5052 0.0000 ( 20105 PWs)   bands (ev):

   -23.4138 -23.3708 -23.3685 -23.3668 -23.3581 -23.3528 -23.3432 -23.3359
   -23.3352 -23.3039  -8.4857  -7.9337  -3.4138  -2.8641  -2.4347  -0.0706
     0.8883   1.2853

          k = 0.2917 0.5533 0.0000 ( 20115 PWs)   bands (ev):

   -23.4138 -23.3688 -23.3657 -23.3651 -23.3608 -23.3568 -23.3405 -23.3379
   -23.3355 -23.3041  -8.3507  -8.0589  -3.4680  -2.7613  -2.5514  -0.1361
     1.0250   1.2051

          k = 0.3333 0.5774 0.0000 ( 20085 PWs)   bands (ev):

   -23.4138 -23.3663 -23.3663 -23.3623 -23.3613 -23.3612 -23.3383 -23.3383
   -23.3371 -23.3041  -8.2022  -8.2022  -3.4894  -2.6607  -2.6607  -0.1718
     1.1335   1.1335

     the Fermi energy is    -2.0877 ev

!    total energy              =    -326.33615626 Ry
     estimated scf accuracy    <          4.9E-11 Ry
     smearing contrib. (-TS)   =      -0.00067864 Ry
     internal energy E=F+TS    =    -326.33547762 Ry

     The total energy is F=E-TS. E is the sum of the following terms:
     one-electron contribution =    -765.21586696 Ry
     hartree contribution      =     390.28887623 Ry
     xc contribution           =     -94.73934062 Ry
     ewald contribution        =     143.33085374 Ry

     convergence has been achieved in   8 iterations

     negative rho (up, down):  3.087E-03 0.000E+00

     Forces acting on atoms (cartesian axes, Ry/au):

     atom    1 type  1   force =     0.00000000    0.00000000   -0.04506152
     atom    2 type  1   force =     0.00000000    0.00000000    0.04506152

     Total force =     0.045062     Total SCF correction =     0.000017
     Energy error            =      2.0E-03
     Gradient error          =      4.5E-02

     number of scf cycles    =   2
     number of bfgs steps    =   1

     energy   old            =    -326.3341675249 Ry
     energy   new            =    -326.3361562616 Ry

     CASE: energy  _new < energy  _old


     WARNING: bfgs curvature condition failed, Theta= 0.789
     new trust radius        =       0.0488626597 bohr
     new conv_thr            =       0.0000000010 Ry


ATOMIC_POSITIONS (crystal)
Sn            0.3333333330        0.6666666660        0.5000000000    0   0   0
Sn            0.6666666660        0.3333333330        0.4024681688



     Writing output data file ../tmp/stanene.save/
     NEW-OLD atomic charge density approx. for the potential

     negative rho (up, down):  3.133E-03 0.000E+00

     total cpu time spent up to now is      323.3 secs

     Self-consistent Calculation

     iteration #  1     ecut=    60.00 Ry     beta= 0.70
     Davidson diagonalization with overlap
     ethr =  1.00E-06,  avg # of iterations =  5.1

     negative rho (up, down):  3.147E-03 0.000E+00

     total cpu time spent up to now is      354.3 secs

     total energy              =    -326.33727307 Ry
     estimated scf accuracy    <       0.00165710 Ry

     iteration #  2     ecut=    60.00 Ry     beta= 0.70
     Davidson diagonalization with overlap
     ethr =  5.92E-06,  avg # of iterations =  3.8

     negative rho (up, down):  3.141E-03 0.000E+00

     total cpu time spent up to now is      371.3 secs

     total energy              =    -326.33549259 Ry
     estimated scf accuracy    <       0.02526575 Ry

     iteration #  3     ecut=    60.00 Ry     beta= 0.70
     Davidson diagonalization with overlap
     ethr =  5.92E-06,  avg # of iterations =  3.5

     negative rho (up, down):  3.136E-03 0.000E+00

     total cpu time spent up to now is      387.3 secs

     total energy              =    -326.33835738 Ry
     estimated scf accuracy    <       0.00008001 Ry

     iteration #  4     ecut=    60.00 Ry     beta= 0.70
     Davidson diagonalization with overlap
     ethr =  2.86E-07,  avg # of iterations =  2.0

     negative rho (up, down):  3.135E-03 0.000E+00

     total cpu time spent up to now is      400.8 secs

     total energy              =    -326.33837515 Ry
     estimated scf accuracy    <       0.00000154 Ry

     iteration #  5     ecut=    60.00 Ry     beta= 0.70
     Davidson diagonalization with overlap
     ethr =  5.50E-09,  avg # of iterations =  2.4

     negative rho (up, down):  3.136E-03 0.000E+00

     total cpu time spent up to now is      417.4 secs

     total energy              =    -326.33837558 Ry
     estimated scf accuracy    <       0.00000014 Ry

     iteration #  6     ecut=    60.00 Ry     beta= 0.70
     Davidson diagonalization with overlap
     ethr =  4.95E-10,  avg # of iterations =  2.0

     negative rho (up, down):  3.136E-03 0.000E+00

     total cpu time spent up to now is      431.8 secs

     total energy              =    -326.33837560 Ry
     estimated scf accuracy    <          9.0E-09 Ry

     iteration #  7     ecut=    60.00 Ry     beta= 0.70
     Davidson diagonalization with overlap
     ethr =  3.22E-11,  avg # of iterations =  2.7

     negative rho (up, down):  3.136E-03 0.000E+00

     total cpu time spent up to now is      448.0 secs

     total energy              =    -326.33837560 Ry
     estimated scf accuracy    <          2.9E-09 Ry

     iteration #  8     ecut=    60.00 Ry     beta= 0.70
     Davidson diagonalization with overlap
     ethr =  1.04E-11,  avg # of iterations =  2.0

     negative rho (up, down):  3.136E-03 0.000E+00

     total cpu time spent up to now is      462.2 secs

     End of self-consistent calculation

          k = 0.0000 0.0000 0.0000 ( 20001 PWs)   bands (ev):

   -23.4066 -23.4066 -23.3712 -23.3601 -23.3601 -23.3235 -23.3130 -23.3130
   -23.2856 -23.2856 -10.0206  -6.9990  -1.8875  -0.9726  -0.9726  -0.2961
     0.9377   0.9377

          k = 0.0000 0.0481 0.0000 ( 20007 PWs)   bands (ev):

   -23.4066 -23.4062 -23.3710 -23.3601 -23.3598 -23.3236 -23.3131 -23.3130
   -23.2860 -23.2856 -10.0079  -6.9997  -1.8818  -1.1797  -1.0036  -0.1143
     0.8752   0.9618

          k = 0.0000 0.0962 0.0000 ( 19993 PWs)   bands (ev):

   -23.4064 -23.4049 -23.3705 -23.3600 -23.3591 -23.3238 -23.3136 -23.3132
   -23.2875 -23.2856  -9.9699  -7.0029  -1.8663  -1.5528  -1.0891   0.1515
     0.7544   1.0253

          k = 0.0000 0.1443 0.0000 ( 20039 PWs)   bands (ev):

   -23.4062 -23.4028 -23.3698 -23.3598 -23.3579 -23.3242 -23.3144 -23.3134
   -23.2899 -23.2857  -9.9070  -7.0112  -1.9457  -1.8429  -1.2112   0.2089
     0.7754   1.1073

          k = 0.0000 0.1925 0.0000 ( 20061 PWs)   bands (ev):

   -23.4059 -23.3999 -23.3690 -23.3594 -23.3563 -23.3249 -23.3154 -23.3137
   -23.2932 -23.2858  -9.8200  -7.0294  -2.3160  -1.8261  -1.3518   0.0502
     0.9505   1.1866

          k = 0.0000 0.2406 0.0000 ( 20045 PWs)   bands (ev):

   -23.4055 -23.3963 -23.3683 -23.3586 -23.3543 -23.3258 -23.3168 -23.3140
   -23.2972 -23.2858  -9.7101  -7.0634  -2.6495  -1.8251  -1.4963  -0.1325
     1.1010   1.2490

          k = 0.0000 0.2887 0.0000 ( 20055 PWs)   bands (ev):

   -23.4052 -23.3920 -23.3677 -23.3572 -23.3520 -23.3271 -23.3185 -23.3144
   -23.3018 -23.2859  -9.5794  -7.1195  -2.9319  -1.8579  -1.6347  -0.2679
     1.1658   1.2889

          k = 0.0000 0.3368 0.0000 ( 20085 PWs)   bands (ev):

   -23.4048 -23.3873 -23.3674 -23.3553 -23.3493 -23.3286 -23.3205 -23.3151
   -23.3065 -23.2860  -9.4306  -7.2028  -3.1538  -1.9362  -1.7600  -0.3286
     1.1286   1.3076

          k = 0.0000 0.3849 0.0000 ( 20131 PWs)   bands (ev):

   -23.4044 -23.3823 -23.3673 -23.3529 -23.3465 -23.3305 -23.3227 -23.3170
   -23.3103 -23.2861  -9.2683  -7.3141  -3.3114  -2.0546  -1.8673  -0.3123
     1.0106   1.3107

          k = 0.0000 0.4330 0.0000 ( 20143 PWs)   bands (ev):

   -23.4042 -23.3773 -23.3671 -23.3502 -23.3434 -23.3326 -23.3252 -23.3212
   -23.3120 -23.2862  -9.1002  -7.4474  -3.4083  -2.1915  -1.9536  -0.2345
     0.8496   1.3049

          k = 0.0000 0.4811 0.0000 ( 20129 PWs)   bands (ev):

   -23.4039 -23.3732 -23.3665 -23.3474 -23.3403 -23.3348 -23.3280 -23.3260
   -23.3126 -23.2862  -8.9402  -7.5868  -3.4558  -2.3194  -2.0166  -0.1169
     0.6751   1.2962

          k = 0.0000 0.5292 0.0000 ( 20120 PWs)   bands (ev):

   -23.4038 -23.3709 -23.3653 -23.3447 -23.3371 -23.3368 -23.3309 -23.3301
   -23.3128 -23.2862  -8.8146  -7.7023  -3.4717  -2.4113  -2.0549   0.0130
     0.5133   1.2892

          k = 0.0000-0.5774 0.0000 ( 20096 PWs)   bands (ev):

   -23.4037 -23.3703 -23.3645 -23.3432 -23.3380 -23.3343 -23.3336 -23.3318
   -23.3128 -23.2862  -8.7643  -7.7497  -3.4743  -2.4449  -2.0677   0.0867
     0.4294   1.2865

          k = 0.0417 0.0722 0.0000 ( 20005 PWs)   bands (ev):

   -23.4065 -23.4053 -23.3707 -23.3600 -23.3593 -23.3237 -23.3134 -23.3131
   -23.2870 -23.2856  -9.9825  -7.0017  -1.8711  -1.4449  -1.0690   0.1000
     0.7695   1.0123

          k = 0.0417 0.1203 0.0000 ( 20013 PWs)   bands (ev):

   -23.4063 -23.4036 -23.3701 -23.3600 -23.3584 -23.3241 -23.3140 -23.3133
   -23.2890 -23.2857  -9.9320  -7.0074  -1.8537  -1.7957  -1.1886   0.2975
     0.6584   1.0979

          k = 0.0417 0.1684 0.0000 ( 20052 PWs)   bands (ev):

   -23.4060 -23.4011 -23.3693 -23.3597 -23.3569 -23.3246 -23.3149 -23.3136
   -23.2918 -23.2857  -9.8571  -7.0206  -2.1585  -1.8336  -1.3360   0.2227
     0.7694   1.1882

          k = 0.0417 0.2165 0.0000 ( 20055 PWs)   bands (ev):

   -23.4057 -23.3979 -23.3685 -23.3592 -23.3550 -23.3254 -23.3161 -23.3139
   -23.2954 -23.2858  -9.7586  -7.0467  -2.4985  -1.8273  -1.4883   0.0351
     0.9504   1.2596

          k = 0.0417 0.2646 0.0000 ( 20075 PWs)   bands (ev):

   -23.4053 -23.3939 -23.3678 -23.3582 -23.3528 -23.3265 -23.3176 -23.3142
   -23.2997 -23.2859  -9.6382  -7.0917  -2.7985  -1.8551  -1.6249  -0.1298
     1.0834   1.2918

          k = 0.0417 0.3127 0.0000 ( 20077 PWs)   bands (ev):

   -23.4050 -23.3894 -23.3674 -23.3566 -23.3503 -23.3280 -23.3194 -23.3147
   -23.3045 -23.2860  -9.4981  -7.1617  -3.0456  -1.9351  -1.7343  -0.2335
     1.1472   1.2723

          k = 0.0417 0.3608 0.0000 ( 20090 PWs)   bands (ev):

   -23.4046 -23.3845 -23.3671 -23.3545 -23.3475 -23.3298 -23.3215 -23.3159
   -23.3089 -23.2861  -9.3420  -7.2597  -3.2322  -2.0494  -1.8340  -0.2613
     1.1006   1.2505

          k = 0.0417 0.4090 0.0000 ( 20107 PWs)   bands (ev):

   -23.4043 -23.3795 -23.3669 -23.3521 -23.3445 -23.3318 -23.3239 -23.3189
   -23.3116 -23.2862  -9.1757  -7.3834  -3.3575  -2.1712  -1.9352  -0.2180
     0.9577   1.2516

          k = 0.0417 0.4571 0.0000 ( 20118 PWs)   bands (ev):

   -23.4040 -23.3748 -23.3666 -23.3493 -23.3414 -23.3340 -23.3266 -23.3235
   -23.3125 -23.2863  -9.0093  -7.5226  -3.4286  -2.2867  -2.0254  -0.1209
     0.7828   1.2507

          k = 0.0417 0.5052 0.0000 ( 20132 PWs)   bands (ev):

   -23.4038 -23.3715 -23.3657 -23.3465 -23.3383 -23.3362 -23.3296 -23.3279
   -23.3129 -23.2863  -8.8619  -7.6551  -3.4597  -2.3816  -2.0903   0.0089
     0.6039   1.2480

          k = 0.0417 0.5533 0.0000 ( 20126 PWs)   bands (ev):

   -23.4037 -23.3701 -23.3644 -23.3441 -23.3383 -23.3350 -23.3323 -23.3312
   -23.3130 -23.2863  -8.7681  -7.7426  -3.4686  -2.4366  -2.1234   0.1369
     0.4527   1.2460

          k = 0.0833 0.1443 0.0000 ( 20045 PWs)   bands (ev):

   -23.4061 -23.4015 -23.3694 -23.3599 -23.3571 -23.3245 -23.3147 -23.3136
   -23.2913 -23.2857  -9.8695  -7.0180  -2.0893  -1.8380  -1.3557   0.4891
     0.4988   1.1994

          k = 0.0833 0.1925 0.0000 ( 20059 PWs)   bands (ev):

   -23.4058 -23.3987 -23.3686 -23.3597 -23.3553 -23.3252 -23.3157 -23.3139
   -23.2945 -23.2859  -9.7830  -7.0390  -2.3904  -1.8367  -1.5366   0.3003
     0.7015   1.2819

          k = 0.0833 0.2406 0.0000 ( 20083 PWs)   bands (ev):

   -23.4054 -23.3951 -23.3677 -23.3591 -23.3531 -23.3263 -23.3170 -23.3143
   -23.2984 -23.2860  -9.6738  -7.0761  -2.6748  -1.8895  -1.6720   0.1229
     0.8752   1.3233

          k = 0.0833 0.2887 0.0000 ( 20094 PWs)   bands (ev):

   -23.4051 -23.3909 -23.3670 -23.3581 -23.3506 -23.3276 -23.3185 -23.3147
   -23.3029 -23.2861  -9.5437  -7.1351  -2.9243  -2.0159  -1.7413  -0.0135
     1.0000   1.3075

          k = 0.0833 0.3368 0.0000 ( 20094 PWs)   bands (ev):

   -23.4047 -23.3862 -23.3666 -23.3565 -23.3478 -23.3294 -23.3204 -23.3154
   -23.3075 -23.2862  -9.3956  -7.2206  -3.1264  -2.1546  -1.8097  -0.0881
     1.0741   1.2275

          k = 0.0833 0.3849 0.0000 ( 20088 PWs)   bands (ev):

   -23.4044 -23.3812 -23.3663 -23.3544 -23.3449 -23.3314 -23.3226 -23.3173
   -23.3112 -23.2863  -9.2339  -7.3330  -3.2751  -2.2734  -1.9063  -0.0925
     1.0731   1.1319

          k = 0.0833 0.4330 0.0000 ( 20111 PWs)   bands (ev):

   -23.4041 -23.3762 -23.3661 -23.3518 -23.3418 -23.3337 -23.3252 -23.3211
   -23.3127 -23.2864  -9.0660  -7.4668  -3.3719  -2.3623  -2.0244  -0.0334
     0.9170   1.1386

          k = 0.0833 0.4811 0.0000 ( 20119 PWs)   bands (ev):

   -23.4039 -23.3720 -23.3655 -23.3491 -23.3387 -23.3360 -23.3285 -23.3253
   -23.3132 -23.2865  -8.9055  -7.6066  -3.4257  -2.4174  -2.1435   0.0745
     0.7381   1.1449

          k = 0.0833 0.5292 0.0000 ( 20109 PWs)   bands (ev):

   -23.4038 -23.3697 -23.3642 -23.3463 -23.3387 -23.3353 -23.3317 -23.3288
   -23.3134 -23.2865  -8.7784  -7.7233  -3.4496  -2.4394  -2.2383   0.2158
     0.5569   1.1475

          k = 0.0833 0.5774 0.0000 ( 20128 PWs)   bands (ev):

   -23.4037 -23.3691 -23.3634 -23.3448 -23.3400 -23.3334 -23.3323 -23.3315
   -23.3135 -23.2866  -8.7271  -7.7715  -3.4559  -2.4416  -2.2773   0.3637
     0.3964   1.1483

          k = 0.1250 0.2165 0.0000 ( 20077 PWs)   bands (ev):

   -23.4055 -23.3955 -23.3676 -23.3595 -23.3532 -23.3262 -23.3167 -23.3143
   -23.2980 -23.2860  -9.6857  -7.0710  -2.6189  -1.9184  -1.6929   0.3027
     0.7134   1.3378

          k = 0.1250 0.2646 0.0000 ( 20086 PWs)   bands (ev):

   -23.4051 -23.3916 -23.3667 -23.3591 -23.3507 -23.3275 -23.3179 -23.3148
   -23.3021 -23.2862  -9.5667  -7.1221  -2.8309  -2.1067  -1.7450   0.2157
     0.8015   1.3506

          k = 0.1250 0.3127 0.0000 ( 20092 PWs)   bands (ev):

   -23.4048 -23.3872 -23.3659 -23.3581 -23.3480 -23.3292 -23.3195 -23.3154
   -23.3065 -23.2864  -9.4281  -7.1971  -3.0165  -2.2931  -1.7921   0.1304
     0.8706   1.3239

          k = 0.1250 0.3608 0.0000 ( 20080 PWs)   bands (ev):

   -23.4045 -23.3823 -23.3654 -23.3566 -23.3450 -23.3312 -23.3215 -23.3164
   -23.3107 -23.2865  -9.2735  -7.2983  -3.1684  -2.4389  -1.8704   0.0882
     0.8909   1.2651

          k = 0.1250 0.4090 0.0000 ( 20114 PWs)   bands (ev):

   -23.4042 -23.3773 -23.3651 -23.3544 -23.3419 -23.3335 -23.3241 -23.3190
   -23.3131 -23.2867  -9.1082  -7.4234  -3.2833  -2.5340  -1.9834   0.0995
     0.8652   1.1905

          k = 0.1250 0.4571 0.0000 ( 20113 PWs)   bands (ev):

   -23.4039 -23.3726 -23.3647 -23.3519 -23.3388 -23.3360 -23.3276 -23.3226
   -23.3139 -23.2868  -8.9416  -7.5632  -3.3631  -2.5746  -2.1199   0.1571
     0.8018   1.1222

          k = 0.1250 0.5052 0.0000 ( 20113 PWs)   bands (ev):

   -23.4038 -23.3691 -23.3637 -23.3492 -23.3389 -23.3354 -23.3313 -23.3260
   -23.3142 -23.2869  -8.7920  -7.6972  -3.4123  -2.5612  -2.2627   0.2424
     0.7136   1.0755

          k = 0.1250 0.5533 0.0000 ( 20114 PWs)   bands (ev):

   -23.4037 -23.3678 -23.3623 -23.3468 -23.3411 -23.3341 -23.3322 -23.3291
   -23.3143 -23.2869  -8.6948  -7.7875  -3.4355  -2.4985  -2.3933   0.3204
     0.6341   1.0530

          k = 0.1667 0.2887 0.0000 ( 20089 PWs)   bands (ev):

   -23.4048 -23.3875 -23.3656 -23.3588 -23.3480 -23.3291 -23.3192 -23.3154
   -23.3061 -23.2864  -9.4390  -7.1893  -2.9619  -2.3616  -1.7859   0.2590
     0.7471   1.3633

          k = 0.1667 0.3368 0.0000 ( 20084 PWs)   bands (ev):

   -23.4045 -23.3829 -23.3646 -23.3581 -23.3450 -23.3312 -23.3209 -23.3161
   -23.3103 -23.2866  -9.2935  -7.2805  -3.0711  -2.5768  -1.8492   0.2616
     0.7044   1.3660

          k = 0.1667 0.3849 0.0000 ( 20093 PWs)   bands (ev):

   -23.4042 -23.3780 -23.3639 -23.3567 -23.3419 -23.3335 -23.3234 -23.3174
   -23.3136 -23.2869  -9.1340  -7.3959  -3.1704  -2.7189  -1.9462   0.2541
     0.6746   1.3411

          k = 0.1667 0.4330 0.0000 ( 20113 PWs)   bands (ev):

   -23.4040 -23.3730 -23.3634 -23.3546 -23.3387 -23.3361 -23.3269 -23.3202
   -23.3149 -23.2870  -8.9672  -7.5304  -3.2673  -2.7734  -2.0737   0.2478
     0.6755   1.2790

          k = 0.1667 0.4811 0.0000 ( 20107 PWs)   bands (ev):

   -23.4038 -23.3687 -23.3627 -23.3521 -23.3390 -23.3354 -23.3310 -23.3232
   -23.3153 -23.2872  -8.8050  -7.6716  -3.3511  -2.7527  -2.2195   0.2398
     0.7208   1.1854

          k = 0.1667 0.5292 0.0000 ( 20106 PWs)   bands (ev):

   -23.4037 -23.3663 -23.3612 -23.3495 -23.3416 -23.3346 -23.3323 -23.3262
   -23.3154 -23.2873  -8.6726  -7.7925  -3.4067  -2.6827  -2.3633   0.2313
     0.8037   1.0754

          k = 0.1667 0.5774 0.0000 ( 20103 PWs)   bands (ev):

   -23.4036 -23.3657 -23.3602 -23.3480 -23.3432 -23.3361 -23.3294 -23.3290
   -23.3154 -23.2873  -8.6171  -7.8444  -3.4260  -2.6233  -2.4472   0.2276
     0.8719   0.9988

          k = 0.2083 0.3608 0.0000 ( 20087 PWs)   bands (ev):

   -23.4042 -23.3782 -23.3632 -23.3577 -23.3419 -23.3335 -23.3231 -23.3168
   -23.3139 -23.2869  -9.1428  -7.3865  -3.0934  -2.8228  -1.9322   0.3743
     0.5370   1.4048

          k = 0.2083 0.4090 0.0000 ( 20099 PWs)   bands (ev):

   -23.4040 -23.3733 -23.3621 -23.3566 -23.3387 -23.3361 -23.3265 -23.3182
   -23.3162 -23.2872  -8.9805  -7.5129  -3.1390  -2.9617  -2.0438   0.3507
     0.5256   1.4041

          k = 0.2083 0.4571 0.0000 ( 20115 PWs)   bands (ev):

   -23.4038 -23.3685 -23.3613 -23.3547 -23.3390 -23.3354 -23.3307 -23.3207
   -23.3167 -23.2874  -8.8143  -7.6530  -3.2650  -2.9330  -2.1786   0.2315
     0.6544   1.3500

          k = 0.2083 0.5052 0.0000 ( 20122 PWs)   bands (ev):

   -23.4037 -23.3648 -23.3601 -23.3524 -23.3419 -23.3350 -23.3323 -23.3235
   -23.3169 -23.2876  -8.6596  -7.7911  -3.3698  -2.8439  -2.3228   0.1462
     0.8014   1.2494

          k = 0.2083 0.5533 0.0000 ( 20133 PWs)   bands (ev):

   -23.4036 -23.3635 -23.3582 -23.3502 -23.3443 -23.3380 -23.3292 -23.3263
   -23.3170 -23.2877  -8.5525  -7.8903  -3.4245  -2.7500  -2.4439   0.1028
     0.9521   1.1200

          k = 0.2500 0.4330 0.0000 ( 20133 PWs)   bands (ev):

   -23.4038 -23.3684 -23.3603 -23.3561 -23.3390 -23.3355 -23.3306 -23.3186
   -23.3185 -23.2875  -8.8176  -7.6463  -3.1941  -3.0373  -2.1627   0.2275
     0.6256   1.4174

          k = 0.2500 0.4811 0.0000 ( 20115 PWs)   bands (ev):

   -23.4037 -23.3639 -23.3588 -23.3548 -23.3420 -23.3351 -23.3323 -23.3210
   -23.3187 -23.2878  -8.6538  -7.7887  -3.3368  -2.9440  -2.2966   0.0938
     0.7831   1.3707

          k = 0.2500 0.5292 0.0000 ( 20109 PWs)   bands (ev):

   -23.4036 -23.3612 -23.3567 -23.3528 -23.3447 -23.3392 -23.3292 -23.3235
   -23.3188 -23.2879  -8.5088  -7.9209  -3.4279  -2.8316  -2.4300   0.0084
     0.9412   1.2765

          k = 0.2500 0.5774 0.0000 ( 20109 PWs)   bands (ev):

   -23.4036 -23.3606 -23.3551 -23.3516 -23.3462 -23.3412 -23.3266 -23.3260
   -23.3188 -23.2880  -8.4398  -7.9855  -3.4587  -2.7638  -2.5047  -0.0207
     1.0434   1.1948

          k = 0.2917 0.5052 0.0000 ( 20105 PWs)   bands (ev):

   -23.4036 -23.3601 -23.3558 -23.3545 -23.3448 -23.3397 -23.3292 -23.3215
   -23.3206 -23.2880  -8.4932  -7.9317  -3.4301  -2.8592  -2.4232  -0.0264
     0.9376   1.3330

          k = 0.2917 0.5533 0.0000 ( 20115 PWs)   bands (ev):

   -23.4035 -23.3580 -23.3537 -23.3525 -23.3471 -23.3437 -23.3263 -23.3236
   -23.3209 -23.2882  -8.3562  -8.0595  -3.4848  -2.7550  -2.5406  -0.0916
     1.0759   1.2541

          k = 0.3333 0.5774 0.0000 ( 20085 PWs)   bands (ev):

   -23.4035 -23.3554 -23.3554 -23.3482 -23.3482 -23.3480 -23.3240 -23.3240
   -23.3227 -23.2882  -8.2055  -8.2055  -3.5071  -2.6517  -2.6517  -0.1273
     1.1843   1.1843

     the Fermi energy is    -2.0846 ev

!    total energy              =    -326.33837560 Ry
     estimated scf accuracy    <          5.6E-11 Ry
     smearing contrib. (-TS)   =      -0.00065107 Ry
     internal energy E=F+TS    =    -326.33772453 Ry

     The total energy is F=E-TS. E is the sum of the following terms:
     one-electron contribution =    -767.66464232 Ry
     hartree contribution      =     391.52651141 Ry
     xc contribution           =     -94.74479067 Ry
     ewald contribution        =     144.54519705 Ry

     convergence has been achieved in   8 iterations

     negative rho (up, down):  3.136E-03 0.000E+00

     Forces acting on atoms (cartesian axes, Ry/au):

     atom    1 type  1   force =     0.00000000    0.00000000   -0.04576997
     atom    2 type  1   force =     0.00000000    0.00000000    0.04576997

     Total force =     0.045770     Total SCF correction =     0.000017
     Energy error            =      2.2E-03
     Gradient error          =      4.6E-02

     number of scf cycles    =   3
     number of bfgs steps    =   2

     energy   old            =    -326.3361562616 Ry
     energy   new            =    -326.3383756045 Ry

     CASE: energy  _new < energy  _old


     WARNING: bfgs curvature condition failed, Theta= 0.250
     new trust radius        =       0.0732939895 bohr
     new conv_thr            =       0.0000000010 Ry


ATOMIC_POSITIONS (crystal)
Sn            0.3333333330        0.6666666660        0.5000000000    0   0   0
Sn            0.6666666660        0.3333333330        0.4044074442



     Writing output data file ../tmp/stanene.save/
     NEW-OLD atomic charge density approx. for the potential

     negative rho (up, down):  3.206E-03 0.000E+00

     total cpu time spent up to now is      464.7 secs

     Self-consistent Calculation

     iteration #  1     ecut=    60.00 Ry     beta= 0.70
     Davidson diagonalization with overlap
     ethr =  1.00E-06,  avg # of iterations =  6.6

     negative rho (up, down):  3.220E-03 0.000E+00

     total cpu time spent up to now is      498.1 secs

     total energy              =    -326.33935725 Ry
     estimated scf accuracy    <       0.00363805 Ry

     iteration #  2     ecut=    60.00 Ry     beta= 0.70
     Davidson diagonalization with overlap
     ethr =  1.30E-05,  avg # of iterations =  4.1

     negative rho (up, down):  3.209E-03 0.000E+00

     total cpu time spent up to now is      515.7 secs

     total energy              =    -326.33565244 Ry
     estimated scf accuracy    <       0.05282872 Ry

     iteration #  3     ecut=    60.00 Ry     beta= 0.70
     Davidson diagonalization with overlap
     ethr =  1.30E-05,  avg # of iterations =  3.6

     negative rho (up, down):  3.201E-03 0.000E+00

     total cpu time spent up to now is      530.7 secs

     total energy              =    -326.34173228 Ry
     estimated scf accuracy    <       0.00016345 Ry

     iteration #  4     ecut=    60.00 Ry     beta= 0.70
     Davidson diagonalization with overlap
     ethr =  5.84E-07,  avg # of iterations =  2.2

     negative rho (up, down):  3.200E-03 0.000E+00

     total cpu time spent up to now is      544.8 secs

     total energy              =    -326.34176899 Ry
     estimated scf accuracy    <       0.00000333 Ry

     iteration #  5     ecut=    60.00 Ry     beta= 0.70
     Davidson diagonalization with overlap
     ethr =  1.19E-08,  avg # of iterations =  2.3

     negative rho (up, down):  3.200E-03 0.000E+00

     total cpu time spent up to now is      561.8 secs

     total energy              =    -326.34176989 Ry
     estimated scf accuracy    <       0.00000030 Ry

     iteration #  6     ecut=    60.00 Ry     beta= 0.70
     Davidson diagonalization with overlap
     ethr =  1.07E-09,  avg # of iterations =  2.0

     negative rho (up, down):  3.201E-03 0.000E+00

     total cpu time spent up to now is      577.0 secs

     total energy              =    -326.34176994 Ry
     estimated scf accuracy    <       0.00000002 Ry

     iteration #  7     ecut=    60.00 Ry     beta= 0.70
     Davidson diagonalization with overlap
     ethr =  6.70E-11,  avg # of iterations =  2.8

     negative rho (up, down):  3.201E-03 0.000E+00

     total cpu time spent up to now is      594.8 secs

     total energy              =    -326.34176994 Ry
     estimated scf accuracy    <          5.8E-09 Ry

     iteration #  8     ecut=    60.00 Ry     beta= 0.70
     Davidson diagonalization with overlap
     ethr =  2.08E-11,  avg # of iterations =  2.0

     negative rho (up, down):  3.201E-03 0.000E+00

     total cpu time spent up to now is      608.8 secs

     End of self-consistent calculation

          k = 0.0000 0.0000 0.0000 ( 20001 PWs)   bands (ev):

   -23.3924 -23.3924 -23.3571 -23.3415 -23.3415 -23.3068 -23.2900 -23.2900
   -23.2627 -23.2627 -10.0520  -6.9380  -1.8375  -1.0038  -1.0038  -0.3100
     0.9647   0.9647

          k = 0.0000 0.0481 0.0000 ( 20007 PWs)   bands (ev):

   -23.3924 -23.3920 -23.3569 -23.3415 -23.3413 -23.3068 -23.2902 -23.2901
   -23.2632 -23.2627 -10.0392  -6.9391  -1.8320  -1.2109  -1.0349  -0.1264
     0.9028   0.9901

          k = 0.0000 0.0962 0.0000 ( 19993 PWs)   bands (ev):

   -23.3922 -23.3906 -23.3564 -23.3415 -23.3405 -23.3070 -23.2907 -23.2903
   -23.2648 -23.2628 -10.0008  -6.9433  -1.8171  -1.5849  -1.1205   0.1463
     0.7832   1.0570

          k = 0.0000 0.1443 0.0000 ( 20039 PWs)   bands (ev):

   -23.3920 -23.3884 -23.3556 -23.3414 -23.3392 -23.3074 -23.2916 -23.2906
   -23.2673 -23.2628  -9.9374  -6.9537  -1.9771  -1.7957  -1.2431   0.2189
     0.8003   1.1442

          k = 0.0000 0.1925 0.0000 ( 20061 PWs)   bands (ev):

   -23.3917 -23.3853 -23.3547 -23.3411 -23.3375 -23.3080 -23.2928 -23.2910
   -23.2707 -23.2628  -9.8497  -6.9749  -2.3471  -1.7797  -1.3842   0.0708
     0.9770   1.2300

          k = 0.0000 0.2406 0.0000 ( 20045 PWs)   bands (ev):

   -23.3913 -23.3814 -23.3536 -23.3405 -23.3354 -23.3088 -23.2944 -23.2916
   -23.2749 -23.2629  -9.7389  -7.0133  -2.6780  -1.7813  -1.5293  -0.1061
     1.1334   1.2991

          k = 0.0000 0.2887 0.0000 ( 20055 PWs)   bands (ev):

   -23.3909 -23.3770 -23.3527 -23.3395 -23.3329 -23.3099 -23.2963 -23.2924
   -23.2795 -23.2629  -9.6069  -7.0753  -2.9560  -1.8175  -1.6683  -0.2369
     1.2036   1.3450

          k = 0.0000 0.3368 0.0000 ( 20085 PWs)   bands (ev):

   -23.3905 -23.3720 -23.3519 -23.3380 -23.3301 -23.3113 -23.2985 -23.2938
   -23.2840 -23.2630  -9.4566  -7.1656  -3.1721  -1.8994  -1.7941  -0.2943
     1.1697   1.3687

          k = 0.0000 0.3849 0.0000 ( 20131 PWs)   bands (ev):

   -23.3902 -23.3668 -23.3513 -23.3360 -23.3270 -23.3129 -23.3010 -23.2968
   -23.2873 -23.2630  -9.2926  -7.2848  -3.3229  -2.0208  -1.9019  -0.2765
     1.0544   1.3756

          k = 0.0000 0.4330 0.0000 ( 20143 PWs)   bands (ev):

   -23.3899 -23.3619 -23.3505 -23.3336 -23.3237 -23.3148 -23.3038 -23.3015
   -23.2889 -23.2630  -9.1224  -7.4259  -3.4130  -2.1600  -1.9885  -0.1996
     0.8970   1.3725

          k = 0.0000 0.4811 0.0000 ( 20129 PWs)   bands (ev):

   -23.3896 -23.3580 -23.3491 -23.3311 -23.3203 -23.3167 -23.3069 -23.3067
   -23.2896 -23.2630  -8.9603  -7.5723  -3.4546  -2.2897  -2.0518  -0.0864
     0.7287   1.3656

          k = 0.0000 0.5292 0.0000 ( 20120 PWs)   bands (ev):

   -23.3895 -23.3560 -23.3472 -23.3289 -23.3184 -23.3169 -23.3109 -23.3101
   -23.2899 -23.2630  -8.8329  -7.6928  -3.4664  -2.3827  -2.0902   0.0338
     0.5777   1.3596

          k = 0.0000-0.5774 0.0000 ( 20096 PWs)   bands (ev):

   -23.3894 -23.3555 -23.3462 -23.3278 -23.3191 -23.3139 -23.3130 -23.3127
   -23.2900 -23.2630  -8.7818  -7.7420  -3.4675  -2.4168  -2.1031   0.0971
     0.5046   1.3573

          k = 0.0417 0.0722 0.0000 ( 20005 PWs)   bands (ev):

   -23.3923 -23.3911 -23.3566 -23.3415 -23.3407 -23.3070 -23.2905 -23.2902
   -23.2643 -23.2627 -10.0136  -6.9417  -1.8217  -1.4768  -1.1002   0.0919
     0.7982   1.0430

          k = 0.0417 0.1203 0.0000 ( 20013 PWs)   bands (ev):

   -23.3921 -23.3892 -23.3559 -23.3415 -23.3397 -23.3073 -23.2912 -23.2905
   -23.2663 -23.2628  -9.9627  -6.9490  -1.8306  -1.8028  -1.2198   0.2986
     0.6870   1.1334

          k = 0.0417 0.1684 0.0000 ( 20052 PWs)   bands (ev):

   -23.3918 -23.3866 -23.3550 -23.3413 -23.3382 -23.3077 -23.2923 -23.2909
   -23.2693 -23.2628  -9.8871  -6.9648  -2.1904  -1.7868  -1.3669   0.2407
     0.7923   1.2298

          k = 0.0417 0.2165 0.0000 ( 20055 PWs)   bands (ev):

   -23.3915 -23.3831 -23.3540 -23.3410 -23.3362 -23.3084 -23.2937 -23.2913
   -23.2731 -23.2629  -9.7878  -6.9946  -2.5285  -1.7841  -1.5178   0.0601
     0.9784   1.3074

          k = 0.0417 0.2646 0.0000 ( 20075 PWs)   bands (ev):

   -23.3911 -23.3790 -23.3530 -23.3402 -23.3339 -23.3094 -23.2954 -23.2920
   -23.2775 -23.2629  -9.6663  -7.0448  -2.8249  -1.8223  -1.6475  -0.1003
     1.1185   1.3449

          k = 0.0417 0.3127 0.0000 ( 20077 PWs)   bands (ev):

   -23.3907 -23.3742 -23.3521 -23.3390 -23.3312 -23.3107 -23.2974 -23.2930
   -23.2821 -23.2630  -9.5249  -7.1212  -3.0669  -1.9182  -1.7450  -0.2001
     1.1866   1.3307

          k = 0.0417 0.3608 0.0000 ( 20090 PWs)   bands (ev):

   -23.3903 -23.3691 -23.3514 -23.3373 -23.3282 -23.3122 -23.2998 -23.2951
   -23.2861 -23.2630  -9.3671  -7.2267  -3.2471  -2.0385  -1.8427  -0.2249
     1.1424   1.3131

          k = 0.0417 0.4090 0.0000 ( 20107 PWs)   bands (ev):

   -23.3900 -23.3640 -23.3507 -23.3352 -23.3250 -23.3141 -23.3026 -23.2989
   -23.2885 -23.2630  -9.1989  -7.3584  -3.3656  -2.1571  -1.9505  -0.1807
     1.0029   1.3165

          k = 0.0417 0.4571 0.0000 ( 20118 PWs)   bands (ev):

   -23.3897 -23.3595 -23.3496 -23.3327 -23.3216 -23.3160 -23.3058 -23.3036
   -23.2896 -23.2631  -9.0304  -7.5050  -3.4304  -2.2661  -2.0497  -0.0853
     0.8317   1.3182

          k = 0.0417 0.5052 0.0000 ( 20132 PWs)   bands (ev):

   -23.3895 -23.3565 -23.3479 -23.3303 -23.3185 -23.3177 -23.3097 -23.3077
   -23.2900 -23.2631  -8.8809  -7.6435  -3.4566  -2.3561  -2.1211   0.0390
     0.6596   1.3175

          k = 0.0417 0.5533 0.0000 ( 20126 PWs)   bands (ev):

   -23.3894 -23.3553 -23.3462 -23.3285 -23.3194 -23.3148 -23.3126 -23.3111
   -23.2902 -23.2631  -8.7857  -7.7346  -3.4627  -2.4090  -2.1573   0.1539
     0.5222   1.3166

          k = 0.0833 0.1443 0.0000 ( 20045 PWs)   bands (ev):

   -23.3918 -23.3870 -23.3552 -23.3414 -23.3384 -23.3076 -23.2921 -23.2908
   -23.2688 -23.2628  -9.8996  -6.9617  -2.1217  -1.7911  -1.3854   0.5035
     0.5222   1.2408

          k = 0.0833 0.1925 0.0000 ( 20059 PWs)   bands (ev):

   -23.3915 -23.3840 -23.3542 -23.3413 -23.3365 -23.3083 -23.2933 -23.2913
   -23.2721 -23.2629  -9.8124  -6.9859  -2.4215  -1.7964  -1.5608   0.3299
     0.7198   1.3297

          k = 0.0833 0.2406 0.0000 ( 20083 PWs)   bands (ev):

   -23.3912 -23.3802 -23.3531 -23.3409 -23.3343 -23.3091 -23.2948 -23.2918
   -23.2762 -23.2630  -9.7022  -7.0275  -2.7030  -1.8750  -1.6728   0.1548
     0.9035   1.3758

          k = 0.0833 0.2887 0.0000 ( 20094 PWs)   bands (ev):

   -23.3908 -23.3757 -23.3521 -23.3402 -23.3317 -23.3103 -23.2966 -23.2926
   -23.2807 -23.2631  -9.5709  -7.0923  -2.9480  -2.0211  -1.7258   0.0216
     1.0389   1.3609

          k = 0.0833 0.3368 0.0000 ( 20094 PWs)   bands (ev):

   -23.3904 -23.3708 -23.3512 -23.3389 -23.3287 -23.3118 -23.2989 -23.2939
   -23.2851 -23.2631  -9.4213  -7.1848  -3.1443  -2.1646  -1.7937  -0.0494
     1.1240   1.2772

          k = 0.0833 0.3849 0.0000 ( 20088 PWs)   bands (ev):

   -23.3901 -23.3656 -23.3504 -23.3371 -23.3256 -23.3136 -23.3015 -23.2966
   -23.2883 -23.2632  -9.2578  -7.3050  -3.2864  -2.2827  -1.8948  -0.0510
     1.1317   1.1779

          k = 0.0833 0.4330 0.0000 ( 20111 PWs)   bands (ev):

   -23.3898 -23.3607 -23.3495 -23.3349 -23.3223 -23.3157 -23.3048 -23.3007
   -23.2898 -23.2632  -9.0879  -7.4464  -3.3770  -2.3678  -2.0197   0.0096
     0.9661   1.1986

          k = 0.0833 0.4811 0.0000 ( 20119 PWs)   bands (ev):

   -23.3896 -23.3568 -23.3481 -23.3325 -23.3191 -23.3176 -23.3088 -23.3047
   -23.2905 -23.2633  -8.9251  -7.5930  -3.4257  -2.4152  -2.1484   0.1174
     0.7857   1.2110

          k = 0.0833 0.5292 0.0000 ( 20109 PWs)   bands (ev):

   -23.3894 -23.3548 -23.3461 -23.3303 -23.3198 -23.3154 -23.3124 -23.3083
   -23.2908 -23.2633  -8.7961  -7.7145  -3.4462  -2.4244  -2.2571   0.2562
     0.6065   1.2174

          k = 0.0833 0.5774 0.0000 ( 20128 PWs)   bands (ev):

   -23.3894 -23.3543 -23.3451 -23.3292 -23.3207 -23.3142 -23.3120 -23.3115
   -23.2908 -23.2633  -8.7440  -7.7646  -3.4513  -2.4145  -2.3085   0.3802
     0.4697   1.2194

          k = 0.1250 0.2165 0.0000 ( 20077 PWs)   bands (ev):

   -23.3912 -23.3806 -23.3531 -23.3412 -23.3344 -23.3091 -23.2945 -23.2918
   -23.2757 -23.2630  -9.7142  -7.0219  -2.6479  -1.9127  -1.6834   0.3420
     0.7326   1.3905

          k = 0.1250 0.2646 0.0000 ( 20086 PWs)   bands (ev):

   -23.3909 -23.3765 -23.3520 -23.3409 -23.3318 -23.3102 -23.2962 -23.2924
   -23.2799 -23.2631  -9.5941  -7.0782  -2.8563  -2.1195  -1.7195   0.2569
     0.8334   1.4040

          k = 0.1250 0.3127 0.0000 ( 20092 PWs)   bands (ev):

   -23.3905 -23.3718 -23.3508 -23.3402 -23.3290 -23.3116 -23.2982 -23.2933
   -23.2843 -23.2633  -9.4542  -7.1596  -3.0367  -2.3096  -1.7664   0.1739
     0.9173   1.3729

          k = 0.1250 0.3608 0.0000 ( 20080 PWs)   bands (ev):

   -23.3902 -23.3668 -23.3498 -23.3389 -23.3259 -23.3134 -23.3008 -23.2950
   -23.2882 -23.2634  -9.2978  -7.2680  -3.1825  -2.4561  -1.8481   0.1350
     0.9496   1.3084

          k = 0.1250 0.4090 0.0000 ( 20114 PWs)   bands (ev):

   -23.3899 -23.3617 -23.3489 -23.3372 -23.3226 -23.3155 -23.3040 -23.2980
   -23.2904 -23.2635  -9.1305  -7.4007  -3.2917  -2.5502  -1.9651   0.1497
     0.9280   1.2336

          k = 0.1250 0.4571 0.0000 ( 20113 PWs)   bands (ev):

   -23.3896 -23.3572 -23.3477 -23.3350 -23.3193 -23.3176 -23.3080 -23.3017
   -23.2913 -23.2635  -8.9617  -7.5476  -3.3667  -2.5887  -2.1056   0.2108
     0.8575   1.1746

          k = 0.1250 0.5052 0.0000 ( 20113 PWs)   bands (ev):

   -23.3894 -23.3542 -23.3458 -23.3327 -23.3201 -23.3157 -23.3121 -23.3053
   -23.2917 -23.2636  -8.8099  -7.6874  -3.4129  -2.5724  -2.2518   0.3012
     0.7565   1.1401

          k = 0.1250 0.5533 0.0000 ( 20114 PWs)   bands (ev):

[...]

     Davidson diagonalization with overlap
     ethr =  1.78E-10,  avg # of iterations =  2.9

     negative rho (up, down):  3.613E-03 0.000E+00

     total cpu time spent up to now is     2273.8 secs

     total energy              =    -326.41876296 Ry
     estimated scf accuracy    <       0.00000006 Ry

     iteration #  2     ecut=    60.00 Ry     beta= 0.70
     Davidson diagonalization with overlap
     ethr =  2.21E-10,  avg # of iterations =  3.1

     negative rho (up, down):  3.613E-03 0.000E+00

     total cpu time spent up to now is     2289.6 secs

     total energy              =    -326.41876294 Ry
     estimated scf accuracy    <       0.00000039 Ry

     iteration #  3     ecut=    60.00 Ry     beta= 0.70
     Davidson diagonalization with overlap
     ethr =  2.21E-10,  avg # of iterations =  2.5

     negative rho (up, down):  3.613E-03 0.000E+00

     total cpu time spent up to now is     2303.0 secs

     total energy              =    -326.41876300 Ry
     estimated scf accuracy    <          3.1E-10 Ry

     iteration #  4     ecut=    60.00 Ry     beta= 0.70
     Davidson diagonalization with overlap
     ethr =  1.10E-12,  avg # of iterations =  3.7

     negative rho (up, down):  3.613E-03 0.000E+00

     total cpu time spent up to now is     2319.0 secs

     total energy              =    -326.41876300 Ry
     estimated scf accuracy    <          6.8E-11 Ry

     iteration #  5     ecut=    60.00 Ry     beta= 0.70
     Davidson diagonalization with overlap
     ethr =  2.45E-13,  avg # of iterations =  2.0

     negative rho (up, down):  3.613E-03 0.000E+00

     total cpu time spent up to now is     2330.9 secs

     End of self-consistent calculation

          k = 0.0000 0.0000 0.0000 ( 20001 PWs)   bands (ev):

   -23.5201 -23.5201 -23.4418 -23.4418 -23.4253 -23.3553 -23.2133 -23.2133
   -23.1566 -23.1566 -11.3757  -5.2704  -2.3956  -2.3956  -1.9323  -0.0979
     1.1020   1.1020

          k = 0.0000 0.0481 0.0000 ( 20007 PWs)   bands (ev):

   -23.5210 -23.5208 -23.4433 -23.4406 -23.4231 -23.3540 -23.2158 -23.2156
   -23.1553 -23.1543 -11.3609  -5.2932  -2.6858  -2.4283  -1.6243  -0.0957
     1.0701   1.1579

          k = 0.0000 0.0962 0.0000 ( 19993 PWs)   bands (ev):

   -23.5234 -23.5229 -23.4468 -23.4372 -23.4180 -23.3503 -23.2223 -23.2218
   -23.1521 -23.1485 -11.3168  -5.3699  -3.0747  -2.5191  -1.1876  -0.0925
     1.0105   1.3177

          k = 0.0000 0.1443 0.0000 ( 20039 PWs)   bands (ev):

   -23.5266 -23.5259 -23.4514 -23.4322 -23.4117 -23.3442 -23.2310 -23.2303
   -23.1483 -23.1408 -11.2435  -5.5214  -3.3871  -2.6513  -0.8235  -0.0970
     1.0085   1.6296

          k = 0.0000 0.1925 0.0000 ( 20061 PWs)   bands (ev):

   -23.5299 -23.5292 -23.4567 -23.4263 -23.4055 -23.3358 -23.2405 -23.2397
   -23.1449 -23.1326 -11.1416  -5.7645  -3.5844  -2.8058  -0.6239  -0.1136
     1.1422   1.7381

          k = 0.0000 0.2406 0.0000 ( 20045 PWs)   bands (ev):

   -23.5325 -23.5325 -23.4625 -23.4199 -23.4002 -23.3256 -23.2501 -23.2490
   -23.1427 -23.1245 -11.0119  -6.0904  -3.6660  -2.9667  -0.6131  -0.1360
     1.3748   1.9013

          k = 0.0000 0.2887 0.0000 ( 20055 PWs)   bands (ev):

   -23.5355 -23.5341 -23.4687 -23.4136 -23.3964 -23.3141 -23.2592 -23.2574
   -23.1419 -23.1170 -10.8559  -6.4693  -3.6569  -3.1221  -0.7200  -0.1782
     1.5720   2.1316

          k = 0.0000 0.3368 0.0000 ( 20085 PWs)   bands (ev):

   -23.5380 -23.5345 -23.4753 -23.4078 -23.3941 -23.3024 -23.2675 -23.2640
   -23.1425 -23.1103 -10.6760  -6.8701  -3.5855  -3.2636  -0.8752  -0.2541
     1.7101   2.3544

          k = 0.0000 0.3849 0.0000 ( 20131 PWs)   bands (ev):

   -23.5401 -23.5337 -23.4820 -23.4028 -23.3931 -23.2922 -23.2747 -23.2676
   -23.1443 -23.1046 -10.4765  -7.2679  -3.4752  -3.3854  -1.0467  -0.3554
     1.8447   2.5646

          k = 0.0000 0.4330 0.0000 ( 20143 PWs)   bands (ev):

   -23.5416 -23.5316 -23.4886 -23.3988 -23.3930 -23.2866 -23.2804 -23.2661
   -23.1470 -23.1000 -10.2655  -7.6422  -3.4835  -3.3457  -1.2189  -0.4613
     2.0027   2.7939

          k = 0.0000 0.4811 0.0000 ( 20129 PWs)   bands (ev):

   -23.5427 -23.5288 -23.4947 -23.3958 -23.3935 -23.2858 -23.2846 -23.2602
   -23.1499 -23.0967 -10.0598  -7.9687  -3.5553  -3.2186  -1.3753  -0.5502
     2.1805   3.0204

          k = 0.0000 0.5292 0.0000 ( 20120 PWs)   bands (ev):

   -23.5433 -23.5259 -23.4996 -23.3940 -23.3939 -23.2872 -23.2863 -23.2550
   -23.1523 -23.0947  -9.8940  -8.2085  -3.5990  -3.1213  -1.4905  -0.6082
     2.3462   3.1674

          k = 0.0000-0.5774 0.0000 ( 20096 PWs)   bands (ev):

   -23.5435 -23.5246 -23.5016 -23.3941 -23.3934 -23.2880 -23.2866 -23.2530
   -23.1532 -23.0940  -9.8263  -8.3010  -3.6137  -3.0840  -1.5340  -0.6281
     2.4229   3.1821

          k = 0.0417 0.0722 0.0000 ( 20005 PWs)   bands (ev):

   -23.5226 -23.5223 -23.4456 -23.4384 -23.4195 -23.3515 -23.2204 -23.2197
   -23.1532 -23.1501 -11.3315  -5.3429  -2.9734  -2.4943  -1.2978  -0.0931
     1.0149   1.2744

          k = 0.0417 0.1203 0.0000 ( 20013 PWs)   bands (ev):

   -23.5253 -23.5249 -23.4495 -23.4346 -23.4137 -23.3466 -23.2280 -23.2268
   -23.1501 -23.1432 -11.2727  -5.4574  -3.2832  -2.6158  -0.9158  -0.0945
     0.9566   1.4964

          k = 0.0417 0.1684 0.0000 ( 20052 PWs)   bands (ev):

   -23.5287 -23.5279 -23.4543 -23.4295 -23.4071 -23.3395 -23.2371 -23.2355
   -23.1470 -23.1350 -11.1851  -5.6563  -3.5137  -2.7703  -0.6206  -0.1093
     0.9883   1.6852

          k = 0.0417 0.2165 0.0000 ( 20055 PWs)   bands (ev):

   -23.5322 -23.5305 -23.4598 -23.4237 -23.4009 -23.3304 -23.2465 -23.2448
   -23.1447 -23.1267 -11.0693  -5.9432  -3.6365  -2.9377  -0.5093  -0.1280
     1.1664   1.8074

          k = 0.0417 0.2646 0.0000 ( 20075 PWs)   bands (ev):

   -23.5356 -23.5324 -23.4658 -23.4176 -23.3958 -23.3198 -23.2555 -23.2537
   -23.1437 -23.1187 -10.9263  -6.2970  -3.6629  -3.1027  -0.5754  -0.1436
     1.4173   1.9872

          k = 0.0417 0.3127 0.0000 ( 20077 PWs)   bands (ev):

   -23.5384 -23.5333 -23.4723 -23.4119 -23.3921 -23.3084 -23.2640 -23.2612
   -23.1440 -23.1114 -10.7581  -6.6865  -3.6208  -3.2523  -0.7266  -0.1851
     1.6202   2.2338

          k = 0.0417 0.3608 0.0000 ( 20090 PWs)   bands (ev):

   -23.5408 -23.5331 -23.4789 -23.4066 -23.3901 -23.2975 -23.2715 -23.2664
   -23.1456 -23.1050 -10.5677  -7.0849  -3.5499  -3.3633  -0.9085  -0.2580
     1.7741   2.4616

          k = 0.0417 0.4090 0.0000 ( 20107 PWs)   bands (ev):

   -23.5426 -23.5316 -23.4856 -23.4022 -23.3893 -23.2897 -23.2778 -23.2674
   -23.1483 -23.0997 -10.3609  -7.4706  -3.5582  -3.3430  -1.0993  -0.3468
     1.9282   2.6717

          k = 0.0417 0.4571 0.0000 ( 20118 PWs)   bands (ev):

   -23.5439 -23.5292 -23.4920 -23.3985 -23.3895 -23.2872 -23.2826 -23.2631
   -23.1516 -23.0956 -10.1494  -7.8228  -3.6277  -3.2257  -1.2828  -0.4310
     2.0989   2.8725

          k = 0.0417 0.5052 0.0000 ( 20132 PWs)   bands (ev):

   -23.5447 -23.5263 -23.4976 -23.3957 -23.3903 -23.2876 -23.2856 -23.2571
   -23.1546 -23.0928  -9.9571  -8.1114  -3.6825  -3.1094  -1.4363  -0.4947
     2.2704   3.0217

          k = 0.0417 0.5533 0.0000 ( 20126 PWs)   bands (ev):

   -23.5451 -23.5240 -23.5012 -23.3936 -23.3916 -23.2884 -23.2869 -23.2533
   -23.1564 -23.0914  -9.8317  -8.2857  -3.7111  -3.0363  -1.5275  -0.5285
     2.3915   3.1407

          k = 0.0833 0.1443 0.0000 ( 20045 PWs)   bands (ev):

   -23.5282 -23.5275 -23.4532 -23.4311 -23.4073 -23.3409 -23.2360 -23.2339
   -23.1482 -23.1355 -11.1997  -5.6204  -3.4781  -2.7744  -0.5923  -0.1103
     0.8935   1.6697

          k = 0.0833 0.1925 0.0000 ( 20059 PWs)   bands (ev):

   -23.5320 -23.5296 -23.4580 -23.4266 -23.4002 -23.3332 -23.2447 -23.2422
   -23.1469 -23.1270 -11.0981  -5.8667  -3.6017  -2.9621  -0.3377  -0.1443
     0.9229   1.7670

          k = 0.0833 0.2406 0.0000 ( 20083 PWs)   bands (ev):

   -23.5359 -23.5312 -23.4637 -23.4215 -23.3935 -23.3241 -23.2534 -23.2508
   -23.1465 -23.1184 -10.9687  -6.1848  -3.6438  -3.1522  -0.3438  -0.0972
     1.1104   1.8948

          k = 0.0833 0.2887 0.0000 ( 20094 PWs)   bands (ev):

   -23.5395 -23.5319 -23.4699 -23.4162 -23.3879 -23.3140 -23.2616 -23.2588
   -23.1475 -23.1103 -10.8131  -6.5494  -3.6239  -3.3224  -0.5063  -0.0569
     1.3935   2.0708

          k = 0.0833 0.3368 0.0000 ( 20094 PWs)   bands (ev):

   -23.5426 -23.5317 -23.4765 -23.4109 -23.3840 -23.3039 -23.2691 -23.2648
   -23.1497 -23.1029 -10.6334  -6.9349  -3.6084  -3.4155  -0.7111  -0.0703
     1.6530   2.3130

          k = 0.0833 0.3849 0.0000 ( 20088 PWs)   bands (ev):

   -23.5451 -23.5305 -23.4831 -23.4059 -23.3819 -23.2955 -23.2755 -23.2674
   -23.1530 -23.0966 -10.4339  -7.3196  -3.6927  -3.3474  -0.9323  -0.1146
     1.8567   2.5303

          k = 0.0833 0.4330 0.0000 ( 20111 PWs)   bands (ev):

   -23.5470 -23.5284 -23.4896 -23.4014 -23.3816 -23.2912 -23.2807 -23.2649
   -23.1571 -23.0915 -10.2223  -7.6842  -3.7925  -3.2154  -1.1531  -0.1697
     2.0376   2.6634

          k = 0.0833 0.4811 0.0000 ( 20119 PWs)   bands (ev):

   -23.5482 -23.5256 -23.4956 -23.3972 -23.3827 -23.2903 -23.2846 -23.2592
   -23.1612 -23.0878 -10.0148  -8.0052  -3.8695  -3.0756  -1.3532  -0.2198
     2.2017   2.7619

          k = 0.0833 0.5292 0.0000 ( 20109 PWs)   bands (ev):

   -23.5490 -23.5229 -23.5002 -23.3938 -23.3846 -23.2902 -23.2872 -23.2541
   -23.1644 -23.0855  -9.8461  -8.2436  -3.9170  -2.9632  -1.5016  -0.2538
     2.3156   2.8967

          k = 0.0833 0.5774 0.0000 ( 20128 PWs)   bands (ev):

   -23.5492 -23.5216 -23.5021 -23.3920 -23.3859 -23.2900 -23.2883 -23.2521
   -23.1656 -23.0847  -9.7766  -8.3366  -3.9330  -2.9186  -1.5584  -0.2658
     2.3532   3.0430

          k = 0.1250 0.2165 0.0000 ( 20077 PWs)   bands (ev):

   -23.5360 -23.5308 -23.4628 -23.4231 -23.3923 -23.3258 -23.2527 -23.2498
   -23.1478 -23.1182 -10.9829  -6.1456  -3.6291  -3.1848  -0.2369  -0.0365
     0.9191   1.8725

          k = 0.1250 0.2646 0.0000 ( 20086 PWs)   bands (ev):

   -23.5402 -23.5312 -23.4686 -23.4187 -23.3848 -23.3176 -23.2604 -23.2573
   -23.1499 -23.1093 -10.8407  -6.4753  -3.6019  -3.4017  -0.3753   0.1559
     1.0735   2.0036

          k = 0.1250 0.3127 0.0000 ( 20092 PWs)   bands (ev):

   -23.5440 -23.5308 -23.4749 -23.4138 -23.3784 -23.3093 -23.2675 -23.2635
   -23.1532 -23.1009 -10.6731  -6.8346  -3.6419  -3.4831  -0.5667   0.2253
     1.3731   2.1688

          k = 0.1250 0.3608 0.0000 ( 20080 PWs)   bands (ev):

   -23.5474 -23.5296 -23.4814 -23.4087 -23.3740 -23.3020 -23.2739 -23.2668
   -23.1577 -23.0935 -10.4831  -7.2043  -3.8086  -3.3720  -0.7906   0.2286
     1.6968   2.3507

          k = 0.1250 0.4090 0.0000 ( 20114 PWs)   bands (ev):

   -23.5501 -23.5276 -23.4878 -23.4036 -23.3720 -23.2974 -23.2793 -23.2658
   -23.1630 -23.0872 -10.2760  -7.5669  -3.9528  -3.2247  -1.0277   0.2055
     1.9667   2.4308

          k = 0.1250 0.4571 0.0000 ( 20113 PWs)   bands (ev):

   -23.5521 -23.5249 -23.4938 -23.3986 -23.3723 -23.2953 -23.2838 -23.2609
   -23.1686 -23.0823 -10.0623  -7.9034  -4.0634  -3.0649  -1.2580   0.1750
     2.1563   2.4834

          k = 0.1250 0.5052 0.0000 ( 20113 PWs)   bands (ev):

   -23.5534 -23.5221 -23.4990 -23.3941 -23.3741 -23.2941 -23.2874 -23.2552
   -23.1736 -23.0789  -9.8650  -8.1853  -4.1378  -2.9171  -1.4546   0.1485
     2.2224   2.6491

          k = 0.1250 0.5533 0.0000 ( 20114 PWs)   bands (ev):

   -23.5541 -23.5199 -23.5023 -23.3909 -23.3762 -23.2928 -23.2900 -23.2515
   -23.1767 -23.0772  -9.7335  -8.3600  -4.1751  -2.8210  -1.5757   0.1335
     2.2271   2.8747

          k = 0.1667 0.2887 0.0000 ( 20089 PWs)   bands (ev):

   -23.5445 -23.5305 -23.4743 -23.4149 -23.3761 -23.3115 -23.2670 -23.2630
   -23.1546 -23.1002 -10.6864  -6.7991  -3.6520  -3.5128  -0.5205   0.4477
     1.1388   2.1355

          k = 0.1667 0.3368 0.0000 ( 20084 PWs)   bands (ev):

   -23.5486 -23.5291 -23.4804 -23.4102 -23.3686 -23.3066 -23.2730 -23.2663
   -23.1605 -23.0916 -10.5079  -7.1410  -3.8760  -3.3900  -0.7168   0.6034
     1.3902   2.2888

          k = 0.1667 0.3849 0.0000 ( 20093 PWs)   bands (ev):

   -23.5522 -23.5271 -23.4866 -23.4050 -23.3634 -23.3037 -23.2784 -23.2660
   -23.1673 -23.0841 -10.3088  -7.4869  -4.0663  -3.2382  -0.9422   0.6428
     1.7525   2.3252

          k = 0.1667 0.4330 0.0000 ( 20113 PWs)   bands (ev):

   -23.5551 -23.5245 -23.4925 -23.3996 -23.3611 -23.3021 -23.2832 -23.2620
   -23.1746 -23.0780 -10.0958  -7.8220  -4.2170  -3.0685  -1.1774   0.6424
     2.0985   2.2412

          k = 0.1667 0.4811 0.0000 ( 20107 PWs)   bands (ev):

   -23.5572 -23.5216 -23.4978 -23.3944 -23.3617 -23.3003 -23.2874 -23.2563
   -23.1817 -23.0734  -9.8831  -8.1259  -4.3256  -2.8968  -1.4002   0.6318
     2.1286   2.4406

          k = 0.1667 0.5292 0.0000 ( 20106 PWs)   bands (ev):

   -23.5585 -23.5189 -23.5020 -23.3901 -23.3637 -23.2979 -23.2912 -23.2512
   -23.1873 -23.0706  -9.7043  -8.3611  -4.3909  -2.7539  -1.5754   0.6221
     2.0710   2.7336

          k = 0.1667 0.5774 0.0000 ( 20103 PWs)   bands (ev):

   -23.5590 -23.5176 -23.5038 -23.3883 -23.3648 -23.2955 -23.2939 -23.2491
   -23.1894 -23.0697  -9.6276  -8.4568  -4.4128  -2.6939  -1.6465   0.6184
     2.0506   2.9139

          k = 0.2083 0.3608 0.0000 ( 20087 PWs)   bands (ev):

   -23.5530 -23.5269 -23.4862 -23.4055 -23.3596 -23.3067 -23.2781 -23.2660
   -23.1688 -23.0831 -10.3199  -7.4583  -4.1072  -3.2439  -0.9122   0.9383
     1.5123   2.3768

          k = 0.2083 0.4090 0.0000 ( 20099 PWs)   bands (ev):

   -23.5568 -23.5243 -23.4919 -23.4001 -23.3528 -23.3080 -23.2829 -23.2625
   -23.1779 -23.0757 -10.1131  -7.7763  -4.3016  -3.0734  -1.1318   1.0933
     1.8270   2.2198

          k = 0.2083 0.4571 0.0000 ( 20115 PWs)   bands (ev):

   -23.5598 -23.5214 -23.4971 -23.3946 -23.3496 -23.3080 -23.2874 -23.2571
   -23.1871 -23.0699  -9.8958  -8.0816  -4.4507  -2.8904  -1.3573   1.1387
     2.0522   2.2367

          k = 0.2083 0.5052 0.0000 ( 20122 PWs)   bands (ev):

   -23.5619 -23.5185 -23.5015 -23.3896 -23.3500 -23.3054 -23.2919 -23.2513
   -23.1953 -23.0659  -9.6874  -8.3509  -4.5512  -2.7147  -1.5641   1.1548
     1.9452   2.5958

          k = 0.2083 0.5533 0.0000 ( 20133 PWs)   bands (ev):

   -23.5630 -23.5163 -23.5045 -23.3864 -23.3515 -23.3013 -23.2964 -23.2471
   -23.2006 -23.0638  -9.5387  -8.5308  -4.6017  -2.5910  -1.7042   1.1612
     1.8858   2.8884

          k = 0.2500 0.4330 0.0000 ( 20133 PWs)   bands (ev):

   -23.5607 -23.5214 -23.4968 -23.3947 -23.3436 -23.3124 -23.2875 -23.2573
   -23.1889 -23.0686  -9.9004  -8.0652  -4.4946  -2.8892  -1.3411   1.4587
     1.9987   2.0728

          k = 0.2500 0.4811 0.0000 ( 20115 PWs)   bands (ev):

   -23.5637 -23.5184 -23.5012 -23.3893 -23.3383 -23.3137 -23.2923 -23.2514
   -23.1996 -23.0634  -9.6801  -8.3418  -4.6366  -2.6972  -1.5540   1.6145
     1.9305   2.3665

          k = 0.2500 0.5292 0.0000 ( 20109 PWs)   bands (ev):

   -23.5656 -23.5157 -23.5048 -23.3852 -23.3378 -23.3099 -23.2977 -23.2456
   -23.2085 -23.0601  -9.4784  -8.5780  -4.7230  -2.5226  -1.7423   1.6784
     1.8192   2.7623

          k = 0.2500 0.5774 0.0000 ( 20109 PWs)   bands (ev):

   -23.5662 -23.5143 -23.5065 -23.3836 -23.3385 -23.3042 -23.3033 -23.2428
   -23.2124 -23.0590  -9.3798  -8.6883  -4.7520  -2.4384  -1.8312   1.7325
     1.7435   2.9797

          k = 0.2917 0.5052 0.0000 ( 20105 PWs)   bands (ev):

   -23.5665 -23.5155 -23.5049 -23.3848 -23.3288 -23.3171 -23.2981 -23.2450
   -23.2113 -23.0588  -9.4569  -8.5944  -4.7648  -2.4984  -1.7557   1.7126
     2.1377   2.5424

          k = 0.2917 0.5533 0.0000 ( 20115 PWs)   bands (ev):

   -23.5679 -23.5130 -23.5077 -23.3821 -23.3259 -23.3130 -23.3051 -23.2389
   -23.2204 -23.0565  -9.2596  -8.8064  -4.8301  -2.3249  -1.9307   1.6679
     2.2737   2.8479

          k = 0.3333 0.5774 0.0000 ( 20085 PWs)   bands (ev):

   -23.5687 -23.5104 -23.5104 -23.3809 -23.3166 -23.3134 -23.3134 -23.2306
   -23.2306 -23.0553  -9.0345  -9.0345  -4.8664  -2.1262  -2.1262   1.6347
     2.7014   2.7015

     the Fermi energy is    -2.2622 ev

!    total energy              =    -326.41876300 Ry
     estimated scf accuracy    <          5.2E-12 Ry
     smearing contrib. (-TS)   =       0.00132502 Ry
     internal energy E=F+TS    =    -326.42008802 Ry

     The total energy is F=E-TS. E is the sum of the following terms:
     one-electron contribution =    -857.38985893 Ry
     hartree contribution      =     436.39038670 Ry
     xc contribution           =     -95.00877332 Ry
     ewald contribution        =     189.58815754 Ry

     convergence has been achieved in   5 iterations

     negative rho (up, down):  3.613E-03 0.000E+00

     Forces acting on atoms (cartesian axes, Ry/au):

     atom    1 type  1   force =     0.00000000    0.00000000   -0.00000708
     atom    2 type  1   force =     0.00000000    0.00000000    0.00000708

     Total force =     0.000007     Total SCF correction =     0.000013
     SCF correction compared to forces is large: reduce conv_thr to get better values
     Energy error            =      6.7E-10
     Gradient error          =      7.1E-06

     bfgs converged in  16 scf cycles and  15 bfgs steps
     (criteria: energy <  1.0E-05 Ry, force <  1.0E-04 Ry/Bohr)

     End of BFGS Geometry Optimization

     Final energy   =    -326.4187629998 Ry

     File ../tmp/stanene.bfgs deleted, as requested
Begin final coordinates

ATOMIC_POSITIONS (crystal)
Sn            0.3333333330        0.6666666660        0.5000000000    0   0   0
Sn            0.6666666660        0.3333333330        0.4578734224
End final coordinates



     Writing output data file ../tmp/stanene.save/

     init_run     :      3.56s CPU      3.80s WALL (       1 calls)
     electrons    :   2227.08s CPU   2292.48s WALL (      16 calls)
     update_pot   :      3.73s CPU      3.76s WALL (      15 calls)
     forces       :     30.10s CPU     30.53s WALL (      16 calls)

     Called by init_run:
     wfcinit      :      3.21s CPU      3.36s WALL (       1 calls)
     potinit      :      0.11s CPU      0.11s WALL (       1 calls)
     hinit0       :      0.15s CPU      0.16s WALL (       1 calls)

     Called by electrons:
     c_bands      :   1973.85s CPU   2025.67s WALL (     132 calls)
     sum_band     :    234.27s CPU    245.40s WALL (     132 calls)
     v_of_rho     :      6.13s CPU      6.31s WALL (     147 calls)
     newd         :     13.43s CPU     16.05s WALL (     147 calls)
     mix_rho      :      1.21s CPU      1.26s WALL (     132 calls)

     Called by c_bands:
     init_us_2    :     16.44s CPU     16.64s WALL (   17141 calls)
     cegterg      :   1911.98s CPU   1963.41s WALL (    8052 calls)

     Called by *egterg:
     cdiaghg      :     27.87s CPU     28.12s WALL (   38011 calls)
     h_psi        :   1132.73s CPU   1180.90s WALL (   39048 calls)
     s_psi        :     84.08s CPU     84.68s WALL (   39048 calls)
     g_psi        :      8.24s CPU      8.27s WALL (   30935 calls)

     Called by h_psi:
     h_psi:calbec :    140.32s CPU    145.12s WALL (   39048 calls)
     vloc_psi     :    900.95s CPU    942.84s WALL (   39048 calls)
     add_vuspsi   :     86.90s CPU     88.41s WALL (   39048 calls)

     General routines
     calbec       :    207.32s CPU    213.43s WALL (   51004 calls)
     fft          :      5.00s CPU      5.14s WALL (    1809 calls)
     ffts         :      0.22s CPU      0.22s WALL (     132 calls)
     fftw         :    966.71s CPU   1009.57s WALL ( 1024994 calls)

     Parallel routines
     fft_scatt_xy :     88.02s CPU     93.40s WALL ( 1026935 calls)
     fft_scatt_yz :    499.64s CPU    517.12s WALL ( 1026935 calls)

     PWSCF        :  37m46.37s CPU  38m53.72s WALL


   This run was terminated on:  22: 3:34  19Jan2024            

=------------------------------------------------------------------------------=
   JOB DONE.
=------------------------------------------------------------------------------=
