
     Program PROJWFC v.7.2 starts on 21Jun2024 at 20:40:14 

     This program is part of the open-source Quantum ESPRESSO suite
     for quantum simulation of materials; please cite
         "P. Giannozzi et al., J. Phys.:Condens. Matter 21 395502 (2009);
         "P. Giannozzi et al., J. Phys.:Condens. Matter 29 465901 (2017);
         "P. Giannozzi et al., J. Chem. Phys. 152 154105 (2020);
          URL http://www.quantum-espresso.org", 
     in publications or presentations arising from this work. More details at
     http://www.quantum-espresso.org/quote

     Parallel version (MPI), running on     6 processors

     MPI processes distributed on     1 nodes
     R & G space division:  proc/nbgrp/npool/nimage =       6
     4551 MiB available memory on the printing compute node when the environment starts


     Reading xml data from directory:

     ../tmp/stanene.save/

     IMPORTANT: XC functional enforced from input :
     Exchange-correlation= PBESOL
                           (   1   4  10   8   0   0   0)
     Any further DFT definition will be discarded
     Please, verify this is what you really want


     Parallelization info
     --------------------
     sticks:   dense  smooth     PW     G-vecs:    dense   smooth      PW
     Min         431     214     61                75773    26776    4007
     Max         432     215     62                75788    26799    4017
     Sum        2587    1285    367               454685   160699   24069

     Using Slab Decomposition


     negative rho (up, down):  5.380E-05 0.000E+00

     Gaussian broadening (read from input): ngauss,degauss=   1    0.036748


     Calling projwave .... 
     Subspace diagonalization in iterative solution of the eigenvalue problem:
     a serial algorithm will be used


  Problem Sizes 
  natomwfc =           18
  nbnd     =           16
  nkstot   =           91
  npwx     =         3329
  nkb      =           36


     Atomic states used for projection
     (read from pseudopotential files):

     state #   1: atom   1 (Sn ), wfc  1 (l=2 m= 1)
     state #   2: atom   1 (Sn ), wfc  1 (l=2 m= 2)
     state #   3: atom   1 (Sn ), wfc  1 (l=2 m= 3)
     state #   4: atom   1 (Sn ), wfc  1 (l=2 m= 4)
     state #   5: atom   1 (Sn ), wfc  1 (l=2 m= 5)
     state #   6: atom   1 (Sn ), wfc  2 (l=0 m= 1)
     state #   7: atom   1 (Sn ), wfc  3 (l=1 m= 1)
     state #   8: atom   1 (Sn ), wfc  3 (l=1 m= 2)
     state #   9: atom   1 (Sn ), wfc  3 (l=1 m= 3)
     state #  10: atom   2 (Sn ), wfc  1 (l=2 m= 1)
     state #  11: atom   2 (Sn ), wfc  1 (l=2 m= 2)
     state #  12: atom   2 (Sn ), wfc  1 (l=2 m= 3)
     state #  13: atom   2 (Sn ), wfc  1 (l=2 m= 4)
     state #  14: atom   2 (Sn ), wfc  1 (l=2 m= 5)
     state #  15: atom   2 (Sn ), wfc  2 (l=0 m= 1)
     state #  16: atom   2 (Sn ), wfc  3 (l=1 m= 1)
     state #  17: atom   2 (Sn ), wfc  3 (l=1 m= 2)
     state #  18: atom   2 (Sn ), wfc  3 (l=1 m= 3)

 k =   0.0000000000  0.0000000000  0.0000000000
==== e(   1) =   -24.14986 eV ==== 
     psi = 0.498*[#   1]+0.498*[#  10]+0.002*[#   6]+0.002*[#  15]
    |psi|^2 = 1.000
==== e(   2) =   -24.13852 eV ==== 
     psi = 0.249*[#   4]+0.249*[#   5]+0.249*[#  13]+0.249*[#  14]+0.001*[#   8]
          +0.001*[#   9]+0.001*[#  17]+0.001*[#  18]
    |psi|^2 = 1.000
==== e(   3) =   -24.13852 eV ==== 
     psi = 0.249*[#   4]+0.249*[#   5]+0.249*[#  13]+0.249*[#  14]+0.001*[#   8]
          +0.001*[#   9]+0.001*[#  17]+0.001*[#  18]
    |psi|^2 = 1.000
==== e(   4) =   -24.03115 eV ==== 
     psi = 0.250*[#   2]+0.250*[#   3]+0.250*[#  11]+0.250*[#  12]
    |psi|^2 = 1.000
==== e(   5) =   -24.03115 eV ==== 
     psi = 0.250*[#   2]+0.250*[#   3]+0.250*[#  11]+0.250*[#  12]
    |psi|^2 = 1.000
==== e(   6) =   -23.87296 eV ==== 
     psi = 0.249*[#   4]+0.249*[#   5]+0.249*[#  13]+0.249*[#  14]+0.001*[#   8]
          +0.001*[#   9]+0.001*[#  17]+0.001*[#  18]
    |psi|^2 = 1.000
==== e(   7) =   -23.87296 eV ==== 
     psi = 0.249*[#   4]+0.249*[#   5]+0.249*[#  13]+0.249*[#  14]+0.001*[#   8]
          +0.001*[#   9]+0.001*[#  17]+0.001*[#  18]
    |psi|^2 = 1.000
==== e(   8) =   -23.79747 eV ==== 
     psi = 0.250*[#   2]+0.250*[#   3]+0.250*[#  11]+0.250*[#  12]
    |psi|^2 = 1.000
==== e(   9) =   -23.79747 eV ==== 
     psi = 0.250*[#   2]+0.250*[#   3]+0.250*[#  11]+0.250*[#  12]
    |psi|^2 = 1.000
==== e(  10) =   -23.73821 eV ==== 
     psi = 0.499*[#   1]+0.499*[#  10]
    |psi|^2 = 1.000
==== e(  11) =   -12.33974 eV ==== 
     psi = 0.496*[#   6]+0.496*[#  15]+0.002*[#   1]+0.002*[#  10]
    |psi|^2 = 0.996
==== e(  12) =    -4.39287 eV ==== 
     psi = 0.499*[#   7]+0.499*[#  16]
    |psi|^2 = 0.997
==== e(  13) =    -3.83016 eV ==== 
     psi = 0.493*[#   6]+0.493*[#  15]
    |psi|^2 = 0.988
==== e(  14) =    -3.45586 eV ==== 
     psi = 0.248*[#   8]+0.248*[#   9]+0.248*[#  17]+0.248*[#  18]+0.001*[#   4]
          +0.001*[#   5]+0.001*[#  13]+0.001*[#  14]
    |psi|^2 = 0.996
==== e(  15) =    -3.45586 eV ==== 
     psi = 0.248*[#   8]+0.248*[#   9]+0.248*[#  17]+0.248*[#  18]+0.001*[#   4]
          +0.001*[#   5]+0.001*[#  13]+0.001*[#  14]
    |psi|^2 = 0.996
==== e(  16) =     0.55007 eV ==== 
     psi = 0.235*[#   8]+0.235*[#   9]+0.235*[#  17]+0.235*[#  18]+0.001*[#   4]
          +0.001*[#   5]+0.001*[#  13]+0.001*[#  14]
    |psi|^2 = 0.947

 k =   0.0166666667  0.0000000000  0.0000000000
==== e(   1) =   -24.14996 eV ==== 
     psi = 0.497*[#   1]+0.497*[#  10]+0.002*[#   6]+0.002*[#  15]
    |psi|^2 = 1.000
==== e(   2) =   -24.13909 eV ==== 
     psi = 0.249*[#   4]+0.249*[#   5]+0.249*[#  13]+0.249*[#  14]+0.001*[#   8]
          +0.001*[#   9]+0.001*[#  17]+0.001*[#  18]
    |psi|^2 = 1.000
==== e(   3) =   -24.13894 eV ==== 
     psi = 0.249*[#   4]+0.249*[#   5]+0.249*[#  13]+0.249*[#  14]+0.001*[#   8]
          +0.001*[#   9]+0.001*[#  17]+0.001*[#  18]
    |psi|^2 = 1.000
==== e(   4) =   -24.03120 eV ==== 
     psi = 0.250*[#   2]+0.250*[#   3]+0.250*[#  11]+0.250*[#  12]
    |psi|^2 = 1.000
==== e(   5) =   -24.03107 eV ==== 
     psi = 0.250*[#   2]+0.250*[#   3]+0.250*[#  11]+0.250*[#  12]
    |psi|^2 = 1.000
==== e(   6) =   -23.87243 eV ==== 
     psi = 0.248*[#   4]+0.248*[#   5]+0.248*[#  13]+0.248*[#  14]+0.001*[#   8]
          +0.001*[#   9]+0.001*[#  17]+0.001*[#  18]
    |psi|^2 = 1.000
==== e(   7) =   -23.87234 eV ==== 
     psi = 0.249*[#   4]+0.249*[#   5]+0.249*[#  13]+0.249*[#  14]+0.001*[#   8]
          +0.001*[#   9]+0.001*[#  17]+0.001*[#  18]
    |psi|^2 = 1.000
==== e(   8) =   -23.79757 eV ==== 
     psi = 0.250*[#   2]+0.250*[#   3]+0.250*[#  11]+0.250*[#  12]
    |psi|^2 = 1.000
==== e(   9) =   -23.79742 eV ==== 
     psi = 0.250*[#   2]+0.250*[#   3]+0.250*[#  11]+0.250*[#  12]
    |psi|^2 = 1.000
==== e(  10) =   -23.73820 eV ==== 
     psi = 0.499*[#   1]+0.499*[#  10]
    |psi|^2 = 1.000
==== e(  11) =   -12.33796 eV ==== 
     psi = 0.496*[#   6]+0.496*[#  15]+0.002*[#   1]+0.002*[#  10]
    |psi|^2 = 0.996
==== e(  12) =    -4.39102 eV ==== 
     psi = 0.498*[#   7]+0.498*[#  16]
    |psi|^2 = 0.997
==== e(  13) =    -3.91875 eV ==== 
     psi = 0.415*[#   6]+0.415*[#  15]+0.040*[#   8]+0.040*[#   9]+0.040*[#  17]
          +0.040*[#  18]
    |psi|^2 = 0.990
==== e(  14) =    -3.46000 eV ==== 
     psi = 0.248*[#   8]+0.248*[#   9]+0.248*[#  17]+0.248*[#  18]+0.001*[#   4]
          +0.001*[#   5]+0.001*[#  13]+0.001*[#  14]
    |psi|^2 = 0.996
==== e(  15) =    -3.36941 eV ==== 
     psi = 0.208*[#   8]+0.208*[#   9]+0.208*[#  17]+0.208*[#  18]+0.079*[#   6]
          +0.079*[#  15]+0.001*[#   4]+0.001*[#   5]+0.001*[#  13]+0.001*[#  14]
          
    |psi|^2 = 0.994
==== e(  16) =     0.54732 eV ==== 
     psi = 0.235*[#   8]+0.235*[#   9]+0.235*[#  17]+0.235*[#  18]+0.001*[#   4]
          +0.001*[#   5]+0.001*[#  13]+0.001*[#  14]
    |psi|^2 = 0.945

 k =   0.0333333333  0.0000000000  0.0000000000
==== e(   1) =   -24.15033 eV ==== 
     psi = 0.490*[#   1]+0.490*[#  10]+0.004*[#   4]+0.004*[#   5]+0.004*[#  13]
          +0.004*[#  14]+0.002*[#   6]+0.002*[#  15]
    |psi|^2 = 1.000
==== e(   2) =   -24.14068 eV ==== 
     psi = 0.246*[#   4]+0.246*[#   5]+0.246*[#  13]+0.246*[#  14]+0.006*[#   1]
          +0.006*[#  10]+0.001*[#   8]+0.001*[#   9]+0.001*[#  17]+0.001*[#  18]
          
    |psi|^2 = 1.000
==== e(   3) =   -24.14018 eV ==== 
     psi = 0.248*[#   4]+0.248*[#   5]+0.248*[#  13]+0.248*[#  14]+0.001*[#   8]
          +0.001*[#   9]+0.001*[#  17]+0.001*[#  18]
    |psi|^2 = 1.000
==== e(   4) =   -24.03134 eV ==== 
     psi = 0.250*[#   2]+0.250*[#   3]+0.250*[#  11]+0.250*[#  12]
    |psi|^2 = 1.000
==== e(   5) =   -24.03082 eV ==== 
     psi = 0.250*[#   2]+0.250*[#   3]+0.250*[#  11]+0.250*[#  12]
    |psi|^2 = 1.000
==== e(   6) =   -23.87086 eV ==== 
     psi = 0.248*[#   4]+0.248*[#   5]+0.248*[#  13]+0.248*[#  14]+0.002*[#   1]
          +0.002*[#  10]+0.001*[#   8]+0.001*[#   9]+0.001*[#  17]+0.001*[#  18]
          
    |psi|^2 = 1.000
==== e(   7) =   -23.87049 eV ==== 
     psi = 0.249*[#   4]+0.249*[#   5]+0.249*[#  13]+0.249*[#  14]+0.001*[#   8]
          +0.001*[#   9]+0.001*[#  17]+0.001*[#  18]
    |psi|^2 = 1.000
==== e(   8) =   -23.79786 eV ==== 
     psi = 0.250*[#   2]+0.250*[#   3]+0.250*[#  11]+0.250*[#  12]
    |psi|^2 = 1.000
==== e(   9) =   -23.79729 eV ==== 
     psi = 0.250*[#   2]+0.250*[#   3]+0.250*[#  11]+0.250*[#  12]
    |psi|^2 = 1.000
==== e(  10) =   -23.73815 eV ==== 
     psi = 0.498*[#   1]+0.498*[#  10]
    |psi|^2 = 1.000
==== e(  11) =   -12.33262 eV ==== 
     psi = 0.495*[#   6]+0.495*[#  15]+0.002*[#   1]+0.002*[#  10]
    |psi|^2 = 0.996
==== e(  12) =    -4.38548 eV ==== 
     psi = 0.498*[#   7]+0.498*[#  16]
    |psi|^2 = 0.997
==== e(  13) =    -4.09014 eV ==== 
     psi = 0.351*[#   6]+0.351*[#  15]+0.072*[#   8]+0.072*[#   9]+0.072*[#  17]
          +0.072*[#  18]
    |psi|^2 = 0.992
==== e(  14) =    -3.47239 eV ==== 
     psi = 0.248*[#   8]+0.248*[#   9]+0.248*[#  17]+0.248*[#  18]+0.001*[#   4]
          +0.001*[#   5]+0.001*[#  13]+0.001*[#  14]
    |psi|^2 = 0.996
==== e(  15) =    -3.20451 eV ==== 
     psi = 0.176*[#   8]+0.176*[#   9]+0.176*[#  17]+0.176*[#  18]+0.142*[#   6]
          +0.142*[#  15]
    |psi|^2 = 0.992
==== e(  16) =     0.53943 eV ==== 
     psi = 0.233*[#   8]+0.233*[#   9]+0.233*[#  17]+0.233*[#  18]+0.001*[#   4]
          +0.001*[#   5]+0.001*[#  13]+0.001*[#  14]+0.001*[#   6]+0.001*[#  15]
          
    |psi|^2 = 0.938

 k =   0.0500000000  0.0000000000  0.0000000000
==== e(   1) =   -24.15128 eV ==== 
     psi = 0.455*[#   1]+0.455*[#  10]+0.021*[#   4]+0.021*[#   5]+0.021*[#  13]
          +0.021*[#  14]+0.002*[#   6]+0.002*[#  15]
    |psi|^2 = 1.000
==== e(   2) =   -24.14293 eV ==== 
     psi = 0.230*[#   4]+0.230*[#   5]+0.230*[#  13]+0.230*[#  14]+0.038*[#   1]
          +0.038*[#  10]+0.001*[#   8]+0.001*[#   9]+0.001*[#  17]+0.001*[#  18]
          
    |psi|^2 = 1.000
==== e(   3) =   -24.14220 eV ==== 
     psi = 0.248*[#   4]+0.248*[#   5]+0.248*[#  13]+0.248*[#  14]+0.002*[#   1]
          +0.002*[#  10]+0.001*[#   8]+0.001*[#   9]+0.001*[#  17]+0.001*[#  18]
          
    |psi|^2 = 1.000
==== e(   4) =   -24.03158 eV ==== 
     psi = 0.250*[#   2]+0.250*[#   3]+0.250*[#  11]+0.250*[#  12]
    |psi|^2 = 1.000
==== e(   5) =   -24.03040 eV ==== 
     psi = 0.250*[#   2]+0.250*[#   3]+0.250*[#  11]+0.250*[#  12]
    |psi|^2 = 1.000
==== e(   6) =   -23.86831 eV ==== 
     psi = 0.246*[#   4]+0.246*[#   5]+0.246*[#  13]+0.246*[#  14]+0.005*[#   1]
          +0.005*[#  10]+0.001*[#   8]+0.001*[#   9]+0.001*[#  17]+0.001*[#  18]
          
    |psi|^2 = 1.000
==== e(   7) =   -23.86746 eV ==== 
     psi = 0.249*[#   4]+0.249*[#   5]+0.249*[#  13]+0.249*[#  14]+0.001*[#   8]
          +0.001*[#   9]+0.001*[#  17]+0.001*[#  18]
    |psi|^2 = 1.000
==== e(   8) =   -23.79834 eV ==== 
     psi = 0.250*[#   2]+0.250*[#   3]+0.250*[#  11]+0.250*[#  12]
    |psi|^2 = 1.000
==== e(   9) =   -23.79706 eV ==== 
     psi = 0.250*[#   2]+0.250*[#   3]+0.250*[#  11]+0.250*[#  12]
    |psi|^2 = 1.000
==== e(  10) =   -23.73807 eV ==== 
     psi = 0.497*[#   1]+0.497*[#  10]+0.001*[#   4]+0.001*[#   5]+0.001*[#  13]
          +0.001*[#  14]
    |psi|^2 = 1.000
==== e(  11) =   -12.32373 eV ==== 
     psi = 0.494*[#   6]+0.494*[#  15]+0.002*[#   1]+0.002*[#  10]+0.001*[#   8]
          +0.001*[#   9]+0.001*[#  17]+0.001*[#  18]
    |psi|^2 = 0.996
==== e(  12) =    -4.37624 eV ==== 
     psi = 0.498*[#   7]+0.498*[#  16]
    |psi|^2 = 0.997
==== e(  13) =    -4.28143 eV ==== 
     psi = 0.320*[#   6]+0.320*[#  15]+0.087*[#   8]+0.087*[#   9]+0.087*[#  17]
          +0.087*[#  18]
    |psi|^2 = 0.993
==== e(  14) =    -3.49295 eV ==== 
     psi = 0.248*[#   8]+0.248*[#   9]+0.248*[#  17]+0.248*[#  18]+0.001*[#   4]
          +0.001*[#   5]+0.001*[#  13]+0.001*[#  14]
    |psi|^2 = 0.996
==== e(  15) =    -3.02422 eV ==== 
     psi = 0.173*[#   6]+0.173*[#  15]+0.160*[#   8]+0.160*[#   9]+0.160*[#  17]
          +0.160*[#  18]
    |psi|^2 = 0.991
==== e(  16) =     0.52740 eV ==== 
     psi = 0.230*[#   8]+0.230*[#   9]+0.230*[#  17]+0.230*[#  18]+0.002*[#   6]
          +0.002*[#  15]+0.001*[#   4]+0.001*[#   5]+0.001*[#  13]+0.001*[#  14]
          
    |psi|^2 = 0.930

 k =   0.0666666667  0.0000000000  0.0000000000
==== e(   1) =   -24.15358 eV ==== 
     psi = 0.353*[#   1]+0.353*[#  10]+0.073*[#   4]+0.073*[#   5]+0.073*[#  13]
          +0.073*[#  14]+0.001*[#   6]+0.001*[#  15]
    |psi|^2 = 1.000
==== e(   2) =   -24.14497 eV ==== 
     psi = 0.180*[#   4]+0.180*[#   5]+0.180*[#  13]+0.180*[#  14]+0.137*[#   1]
          +0.137*[#  10]
    |psi|^2 = 1.000
==== e(   3) =   -24.14491 eV ==== 
     psi = 0.247*[#   4]+0.247*[#   5]+0.247*[#  13]+0.247*[#  14]+0.004*[#   1]
          +0.004*[#  10]+0.001*[#   8]+0.001*[#   9]+0.001*[#  17]+0.001*[#  18]
          
    |psi|^2 = 1.000
==== e(   4) =   -24.03189 eV ==== 
     psi = 0.250*[#   2]+0.250*[#   3]+0.250*[#  11]+0.250*[#  12]
    |psi|^2 = 1.000
==== e(   5) =   -24.02982 eV ==== 
     psi = 0.250*[#   2]+0.250*[#   3]+0.250*[#  11]+0.250*[#  12]
    |psi|^2 = 1.000
==== e(   6) =   -23.86486 eV ==== 
     psi = 0.245*[#   4]+0.245*[#   5]+0.245*[#  13]+0.245*[#  14]+0.008*[#   1]
          +0.008*[#  10]+0.001*[#   8]+0.001*[#   9]+0.001*[#  17]+0.001*[#  18]
          
    |psi|^2 = 1.000
==== e(   7) =   -23.86335 eV ==== 
     psi = 0.248*[#   4]+0.248*[#   5]+0.248*[#  13]+0.248*[#  14]+0.001*[#   8]
          +0.001*[#   9]+0.001*[#  17]+0.001*[#  18]
    |psi|^2 = 1.000
==== e(   8) =   -23.79900 eV ==== 
     psi = 0.250*[#   2]+0.250*[#   3]+0.250*[#  11]+0.250*[#  12]
    |psi|^2 = 1.000
==== e(   9) =   -23.79673 eV ==== 
     psi = 0.250*[#   2]+0.250*[#   3]+0.250*[#  11]+0.250*[#  12]
    |psi|^2 = 1.000
==== e(  10) =   -23.73793 eV ==== 
     psi = 0.495*[#   1]+0.495*[#  10]+0.002*[#   4]+0.002*[#   5]+0.002*[#  13]
          +0.002*[#  14]
    |psi|^2 = 1.000
==== e(  11) =   -12.31128 eV ==== 
     psi = 0.492*[#   6]+0.492*[#  15]+0.002*[#   8]+0.002*[#   9]+0.002*[#  17]
          +0.002*[#  18]+0.002*[#   1]+0.002*[#  10]
    |psi|^2 = 0.996
==== e(  12) =    -4.47904 eV ==== 
     psi = 0.304*[#   6]+0.304*[#  15]+0.096*[#   8]+0.096*[#   9]+0.096*[#  17]
          +0.096*[#  18]
    |psi|^2 = 0.994
==== e(  13) =    -4.36333 eV ==== 
     psi = 0.498*[#   7]+0.498*[#  16]
    |psi|^2 = 0.997
==== e(  14) =    -3.52151 eV ==== 
     psi = 0.248*[#   8]+0.248*[#   9]+0.248*[#  17]+0.248*[#  18]+0.001*[#   4]
          +0.001*[#   5]+0.001*[#  13]+0.001*[#  14]
    |psi|^2 = 0.996
==== e(  15) =    -2.84241 eV ==== 
     psi = 0.189*[#   6]+0.189*[#  15]+0.152*[#   8]+0.152*[#   9]+0.152*[#  17]
          +0.152*[#  18]
    |psi|^2 = 0.989
==== e(  16) =     0.51263 eV ==== 
     psi = 0.227*[#   8]+0.227*[#   9]+0.227*[#  17]+0.227*[#  18]+0.004*[#   6]
          +0.004*[#  15]+0.001*[#   4]+0.001*[#   5]+0.001*[#  13]+0.001*[#  14]
          
    |psi|^2 = 0.920

 k =   0.0833333333  0.0000000000  0.0000000000
==== e(   1) =   -24.15779 eV ==== 
     psi = 0.235*[#   1]+0.235*[#  10]+0.131*[#   4]+0.131*[#   5]+0.131*[#  13]
          +0.131*[#  14]
    |psi|^2 = 1.000
==== e(   2) =   -24.14822 eV ==== 
     psi = 0.246*[#   4]+0.246*[#   5]+0.246*[#  13]+0.246*[#  14]+0.005*[#   1]
          +0.005*[#  10]+0.001*[#   8]+0.001*[#   9]+0.001*[#  17]+0.001*[#  18]
          
    |psi|^2 = 1.000
==== e(   3) =   -24.14614 eV ==== 
     psi = 0.251*[#   1]+0.251*[#  10]+0.123*[#   4]+0.123*[#   5]+0.123*[#  13]
          +0.123*[#  14]
    |psi|^2 = 1.000
==== e(   4) =   -24.03231 eV ==== 
     psi = 0.250*[#   2]+0.250*[#   3]+0.250*[#  11]+0.250*[#  12]
    |psi|^2 = 1.000
==== e(   5) =   -24.02907 eV ==== 
     psi = 0.250*[#   2]+0.250*[#   3]+0.250*[#  11]+0.250*[#  12]
    |psi|^2 = 1.000
==== e(   6) =   -23.86064 eV ==== 
     psi = 0.243*[#   4]+0.243*[#   5]+0.243*[#  13]+0.243*[#  14]+0.012*[#   1]
          +0.012*[#  10]+0.001*[#   8]+0.001*[#   9]+0.001*[#  17]+0.001*[#  18]
          
    |psi|^2 = 1.000
==== e(   7) =   -23.85827 eV ==== 
     psi = 0.248*[#   4]+0.248*[#   5]+0.248*[#  13]+0.248*[#  14]+0.001*[#   1]
          +0.001*[#   8]+0.001*[#   9]+0.001*[#  10]+0.001*[#  17]+0.001*[#  18]
          
    |psi|^2 = 1.000
==== e(   8) =   -23.79986 eV ==== 
     psi = 0.250*[#   2]+0.250*[#   3]+0.250*[#  11]+0.250*[#  12]
    |psi|^2 = 1.000
==== e(   9) =   -23.79632 eV ==== 
     psi = 0.250*[#   2]+0.250*[#   3]+0.250*[#  11]+0.250*[#  12]
    |psi|^2 = 1.000
==== e(  10) =   -23.73774 eV ==== 
     psi = 0.493*[#   1]+0.493*[#  10]+0.003*[#   4]+0.003*[#   5]+0.003*[#  13]
          +0.003*[#  14]
    |psi|^2 = 1.000
==== e(  11) =   -12.29529 eV ==== 
     psi = 0.490*[#   6]+0.490*[#  15]+0.003*[#   8]+0.003*[#   9]+0.003*[#  17]
          +0.003*[#  18]+0.002*[#   1]+0.002*[#  10]
    |psi|^2 = 0.996
==== e(  12) =    -4.67895 eV ==== 
     psi = 0.293*[#   6]+0.293*[#  15]+0.101*[#   8]+0.101*[#   9]+0.101*[#  17]
          +0.101*[#  18]
    |psi|^2 = 0.995
==== e(  13) =    -4.34674 eV ==== 
     psi = 0.498*[#   7]+0.498*[#  16]
    |psi|^2 = 0.997
==== e(  14) =    -3.55785 eV ==== 
     psi = 0.248*[#   8]+0.248*[#   9]+0.248*[#  17]+0.248*[#  18]+0.001*[#   4]
          +0.001*[#   5]+0.001*[#  13]+0.001*[#  14]
    |psi|^2 = 0.997
==== e(  15) =    -2.66340 eV ==== 
     psi = 0.199*[#   6]+0.199*[#  15]+0.147*[#   8]+0.147*[#   9]+0.147*[#  17]
          +0.147*[#  18]
    |psi|^2 = 0.988
==== e(  16) =     0.49667 eV ==== 
     psi = 0.223*[#   8]+0.223*[#   9]+0.223*[#  17]+0.223*[#  18]+0.006*[#   6]
          +0.006*[#  15]+0.001*[#   4]+0.001*[#   5]+0.001*[#  13]+0.001*[#  14]
          
    |psi|^2 = 0.910

 k =   0.1000000000  0.0000000000  0.0000000000
==== e(   1) =   -24.16358 eV ==== 
     psi = 0.167*[#   4]+0.167*[#   5]+0.167*[#  13]+0.167*[#  14]+0.164*[#   1]
          +0.164*[#  10]
    |psi|^2 = 1.000
==== e(   2) =   -24.15202 eV ==== 
     psi = 0.245*[#   4]+0.245*[#   5]+0.245*[#  13]+0.245*[#  14]+0.008*[#   1]
          +0.008*[#  10]+0.001*[#   8]+0.001*[#   9]+0.001*[#  17]+0.001*[#  18]
          
    |psi|^2 = 1.000
==== e(   3) =   -24.14663 eV ==== 
     psi = 0.317*[#   1]+0.317*[#  10]+0.090*[#   4]+0.090*[#   5]+0.090*[#  13]
          +0.090*[#  14]+0.001*[#   6]+0.001*[#  15]
    |psi|^2 = 1.000
==== e(   4) =   -24.03281 eV ==== 
     psi = 0.250*[#   2]+0.250*[#   3]+0.250*[#  11]+0.250*[#  12]
    |psi|^2 = 1.000
==== e(   5) =   -24.02816 eV ==== 
     psi = 0.250*[#   2]+0.250*[#   3]+0.250*[#  11]+0.250*[#  12]
    |psi|^2 = 1.000
==== e(   6) =   -23.85576 eV ==== 
     psi = 0.240*[#   4]+0.240*[#   5]+0.240*[#  13]+0.240*[#  14]+0.017*[#   1]
          +0.017*[#  10]+0.001*[#   8]+0.001*[#   9]+0.001*[#  17]+0.001*[#  18]
          
    |psi|^2 = 1.000
==== e(   7) =   -23.85236 eV ==== 
     psi = 0.247*[#   4]+0.247*[#   5]+0.247*[#  13]+0.247*[#  14]+0.003*[#   1]
          +0.003*[#  10]+0.001*[#   8]+0.001*[#   9]+0.001*[#  17]+0.001*[#  18]
          
    |psi|^2 = 1.000
==== e(   8) =   -23.80089 eV ==== 
     psi = 0.250*[#   2]+0.250*[#   3]+0.250*[#  11]+0.250*[#  12]
    |psi|^2 = 1.000
==== e(   9) =   -23.79583 eV ==== 
     psi = 0.250*[#   2]+0.250*[#   3]+0.250*[#  11]+0.250*[#  12]
    |psi|^2 = 1.000
==== e(  10) =   -23.73746 eV ==== 
     psi = 0.489*[#   1]+0.489*[#  10]+0.005*[#   4]+0.005*[#   5]+0.005*[#  13]
          +0.005*[#  14]
    |psi|^2 = 1.000
==== e(  11) =   -12.27575 eV ==== 
     psi = 0.487*[#   6]+0.487*[#  15]+0.005*[#   8]+0.005*[#   9]+0.005*[#  17]
          +0.005*[#  18]+0.002*[#   1]+0.002*[#  10]
    |psi|^2 = 0.996
==== e(  12) =    -4.87940 eV ==== 
     psi = 0.287*[#   6]+0.287*[#  15]+0.105*[#   8]+0.105*[#   9]+0.105*[#  17]
          +0.105*[#  18]
    |psi|^2 = 0.995
==== e(  13) =    -4.32650 eV ==== 
     psi = 0.498*[#   7]+0.498*[#  16]
    |psi|^2 = 0.997
==== e(  14) =    -3.60170 eV ==== 
     psi = 0.248*[#   8]+0.248*[#   9]+0.248*[#  17]+0.248*[#  18]+0.001*[#   4]
          +0.001*[#   5]+0.001*[#  13]+0.001*[#  14]
    |psi|^2 = 0.997
==== e(  15) =    -2.48928 eV ==== 
     psi = 0.205*[#   6]+0.205*[#  15]+0.143*[#   8]+0.143*[#   9]+0.143*[#  17]
          +0.143*[#  18]
    |psi|^2 = 0.987
==== e(  16) =     0.48103 eV ==== 
     psi = 0.220*[#   8]+0.220*[#   9]+0.220*[#  17]+0.220*[#  18]+0.008*[#   6]
          +0.008*[#  15]+0.001*[#   4]+0.001*[#   5]+0.001*[#  13]+0.001*[#  14]
          
    |psi|^2 = 0.900

 k =   0.1166666667  0.0000000000  0.0000000000
==== e(   1) =   -24.17046 eV ==== 
     psi = 0.186*[#   4]+0.186*[#   5]+0.186*[#  13]+0.186*[#  14]+0.126*[#   1]
          +0.126*[#  10]
    |psi|^2 = 1.000
==== e(   2) =   -24.15622 eV ==== 
     psi = 0.244*[#   4]+0.244*[#   5]+0.244*[#  13]+0.244*[#  14]+0.010*[#   1]
          +0.010*[#  10]+0.001*[#   8]+0.001*[#   9]+0.001*[#  17]+0.001*[#  18]
          
    |psi|^2 = 1.000
==== e(   3) =   -24.14680 eV ==== 
     psi = 0.351*[#   1]+0.351*[#  10]+0.074*[#   4]+0.074*[#   5]+0.074*[#  13]
          +0.074*[#  14]+0.001*[#   6]+0.001*[#  15]
    |psi|^2 = 1.000
==== e(   4) =   -24.03340 eV ==== 
     psi = 0.250*[#   2]+0.250*[#   3]+0.250*[#  11]+0.250*[#  12]
    |psi|^2 = 1.000
==== e(   5) =   -24.02710 eV ==== 
     psi = 0.250*[#   2]+0.250*[#   3]+0.250*[#  11]+0.250*[#  12]
    |psi|^2 = 1.000
==== e(   6) =   -23.85037 eV ==== 
     psi = 0.238*[#   4]+0.238*[#   5]+0.238*[#  13]+0.238*[#  14]+0.022*[#   1]
          +0.022*[#  10]+0.001*[#   8]+0.001*[#   9]+0.001*[#  17]+0.001*[#  18]
          
    |psi|^2 = 1.000
==== e(   7) =   -23.84577 eV ==== 
     psi = 0.246*[#   4]+0.246*[#   5]+0.246*[#  13]+0.246*[#  14]+0.005*[#   1]
          +0.005*[#  10]+0.001*[#   8]+0.001*[#   9]+0.001*[#  17]+0.001*[#  18]
          
    |psi|^2 = 1.000
==== e(   8) =   -23.80212 eV ==== 
     psi = 0.250*[#   2]+0.250*[#   3]+0.250*[#  11]+0.250*[#  12]
    |psi|^2 = 1.000
==== e(   9) =   -23.79524 eV ==== 
     psi = 0.250*[#   2]+0.250*[#   3]+0.250*[#  11]+0.250*[#  12]
    |psi|^2 = 1.000
==== e(  10) =   -23.73708 eV ==== 
     psi = 0.484*[#   1]+0.484*[#  10]+0.007*[#   4]+0.007*[#   5]+0.007*[#  13]
          +0.007*[#  14]
    |psi|^2 = 1.000
==== e(  11) =   -12.25269 eV ==== 
     psi = 0.484*[#   6]+0.484*[#  15]+0.006*[#   8]+0.006*[#   9]+0.006*[#  17]
          +0.006*[#  18]+0.002*[#   1]+0.002*[#  10]
    |psi|^2 = 0.996
==== e(  12) =    -5.07942 eV ==== 
     psi = 0.282*[#   6]+0.282*[#  15]+0.107*[#   8]+0.107*[#   9]+0.107*[#  17]
          +0.107*[#  18]
    |psi|^2 = 0.996
==== e(  13) =    -4.30264 eV ==== 
     psi = 0.498*[#   7]+0.498*[#  16]
    |psi|^2 = 0.996
==== e(  14) =    -3.65269 eV ==== 
     psi = 0.248*[#   8]+0.248*[#   9]+0.248*[#  17]+0.248*[#  18]+0.001*[#   4]
          +0.001*[#   5]+0.001*[#  13]+0.001*[#  14]
    |psi|^2 = 0.997
==== e(  15) =    -2.32127 eV ==== 
     psi = 0.209*[#   6]+0.209*[#  15]+0.141*[#   8]+0.141*[#   9]+0.141*[#  17]
          +0.141*[#  18]
    |psi|^2 = 0.985
==== e(  16) =     0.46708 eV ==== 
     psi = 0.216*[#   8]+0.216*[#   9]+0.216*[#  17]+0.216*[#  18]+0.011*[#   6]
          +0.011*[#  15]+0.001*[#   4]+0.001*[#   5]+0.001*[#  13]+0.001*[#  14]
          
    |psi|^2 = 0.891

 k =   0.1333333333  0.0000000000  0.0000000000
==== e(   1) =   -24.17816 eV ==== 
     psi = 0.198*[#   4]+0.198*[#   5]+0.198*[#  13]+0.198*[#  14]+0.103*[#   1]
          +0.103*[#  10]
    |psi|^2 = 1.000
==== e(   2) =   -24.16070 eV ==== 
     psi = 0.242*[#   4]+0.242*[#   5]+0.242*[#  13]+0.242*[#  14]+0.013*[#   1]
          +0.013*[#  10]+0.001*[#   8]+0.001*[#   9]+0.001*[#  17]+0.001*[#  18]
          
    |psi|^2 = 1.000
==== e(   3) =   -24.14683 eV ==== 
     psi = 0.368*[#   1]+0.368*[#  10]+0.065*[#   4]+0.065*[#   5]+0.065*[#  13]
          +0.065*[#  14]+0.001*[#   6]+0.001*[#  15]
    |psi|^2 = 1.000
==== e(   4) =   -24.03407 eV ==== 
     psi = 0.250*[#   2]+0.250*[#   3]+0.250*[#  11]+0.250*[#  12]
    |psi|^2 = 1.000
==== e(   5) =   -24.02586 eV ==== 
     psi = 0.250*[#   2]+0.250*[#   3]+0.250*[#  11]+0.250*[#  12]
    |psi|^2 = 1.000
==== e(   6) =   -23.84457 eV ==== 
     psi = 0.235*[#   4]+0.235*[#   5]+0.235*[#  13]+0.235*[#  14]+0.027*[#   1]
          +0.027*[#  10]+0.001*[#   8]+0.001*[#   9]+0.001*[#  17]+0.001*[#  18]
          
    |psi|^2 = 1.000
==== e(   7) =   -23.83864 eV ==== 
     psi = 0.244*[#   4]+0.244*[#   5]+0.244*[#  13]+0.244*[#  14]+0.009*[#   1]
          +0.009*[#  10]+0.001*[#   8]+0.001*[#   9]+0.001*[#  17]+0.001*[#  18]
          
    |psi|^2 = 1.000
==== e(   8) =   -23.80353 eV ==== 
     psi = 0.250*[#   2]+0.250*[#   3]+0.250*[#  11]+0.250*[#  12]
    |psi|^2 = 1.000
==== e(   9) =   -23.79458 eV ==== 
     psi = 0.250*[#   2]+0.250*[#   3]+0.250*[#  11]+0.250*[#  12]
    |psi|^2 = 1.000
==== e(  10) =   -23.73655 eV ==== 
     psi = 0.478*[#   1]+0.478*[#  10]+0.011*[#   4]+0.011*[#   5]+0.011*[#  13]
          +0.011*[#  14]
    |psi|^2 = 1.000
==== e(  11) =   -12.22611 eV ==== 
     psi = 0.480*[#   6]+0.480*[#  15]+0.008*[#   8]+0.008*[#   9]+0.008*[#  17]
          +0.008*[#  18]+0.002*[#   1]+0.002*[#  10]
    |psi|^2 = 0.996
==== e(  12) =    -5.27835 eV ==== 
     psi = 0.279*[#   6]+0.279*[#  15]+0.109*[#   8]+0.109*[#   9]+0.109*[#  17]
          +0.109*[#  18]
    |psi|^2 = 0.996
==== e(  13) =    -4.27516 eV ==== 
     psi = 0.498*[#   7]+0.498*[#  16]
    |psi|^2 = 0.996
==== e(  14) =    -3.71042 eV ==== 
     psi = 0.248*[#   8]+0.248*[#   9]+0.248*[#  17]+0.248*[#  18]+0.001*[#   4]
          +0.001*[#   5]+0.001*[#  13]+0.001*[#  14]
    |psi|^2 = 0.997
==== e(  15) =    -2.16015 eV ==== 
     psi = 0.211*[#   6]+0.211*[#  15]+0.140*[#   8]+0.140*[#   9]+0.140*[#  17]
          +0.140*[#  18]
    |psi|^2 = 0.984
==== e(  16) =     0.45598 eV ==== 
     psi = 0.213*[#   8]+0.213*[#   9]+0.213*[#  17]+0.213*[#  18]+0.014*[#   6]
          +0.014*[#  15]+0.001*[#   4]+0.001*[#   5]+0.001*[#  13]+0.001*[#  14]
          
    |psi|^2 = 0.883

 k =   0.1500000000  0.0000000000  0.0000000000
==== e(   1) =   -24.18646 eV ==== 
     psi = 0.205*[#   4]+0.205*[#   5]+0.205*[#  13]+0.205*[#  14]+0.087*[#   1]
          +0.087*[#  10]
    |psi|^2 = 1.000
==== e(   2) =   -24.16537 eV ==== 
     psi = 0.241*[#   4]+0.241*[#   5]+0.241*[#  13]+0.241*[#  14]+0.015*[#   1]
          +0.015*[#  10]+0.001*[#   8]+0.001*[#   9]+0.001*[#  17]+0.001*[#  18]
          
    |psi|^2 = 1.000
==== e(   3) =   -24.14678 eV ==== 
     psi = 0.378*[#   1]+0.378*[#  10]+0.060*[#   4]+0.060*[#   5]+0.060*[#  13]
          +0.060*[#  14]+0.001*[#   6]+0.001*[#  15]
    |psi|^2 = 1.000
==== e(   4) =   -24.03481 eV ==== 
     psi = 0.250*[#   2]+0.250*[#   3]+0.250*[#  11]+0.250*[#  12]
    |psi|^2 = 1.000
==== e(   5) =   -24.02447 eV ==== 
     psi = 0.250*[#   2]+0.250*[#   3]+0.250*[#  11]+0.250*[#  12]
    |psi|^2 = 1.000
==== e(   6) =   -23.83850 eV ==== 
     psi = 0.232*[#   4]+0.232*[#   5]+0.232*[#  13]+0.232*[#  14]+0.033*[#   1]
          +0.033*[#  10]+0.001*[#   8]+0.001*[#   9]+0.001*[#  17]+0.001*[#  18]
          
    |psi|^2 = 1.000
==== e(   7) =   -23.83113 eV ==== 
     psi = 0.242*[#   4]+0.242*[#   5]+0.242*[#  13]+0.242*[#  14]+0.014*[#   1]
          +0.014*[#  10]+0.001*[#   8]+0.001*[#   9]+0.001*[#  17]+0.001*[#  18]
          
    |psi|^2 = 1.000
==== e(   8) =   -23.80512 eV ==== 
     psi = 0.250*[#   2]+0.250*[#   3]+0.250*[#  11]+0.250*[#  12]
    |psi|^2 = 1.000
==== e(   9) =   -23.79384 eV ==== 
     psi = 0.250*[#   2]+0.250*[#   3]+0.250*[#  11]+0.250*[#  12]
    |psi|^2 = 1.000
==== e(  10) =   -23.73582 eV ==== 
     psi = 0.470*[#   1]+0.470*[#  10]+0.015*[#   4]+0.015*[#   5]+0.015*[#  13]
          +0.015*[#  14]
    |psi|^2 = 1.000
==== e(  11) =   -12.19604 eV ==== 
     psi = 0.476*[#   6]+0.476*[#  15]+0.010*[#   8]+0.010*[#   9]+0.010*[#  17]
          +0.010*[#  18]+0.002*[#   1]+0.002*[#  10]
    |psi|^2 = 0.996
==== e(  12) =    -5.47571 eV ==== 
     psi = 0.277*[#   6]+0.277*[#  15]+0.110*[#   8]+0.110*[#   9]+0.110*[#  17]
          +0.110*[#  18]
    |psi|^2 = 0.997
==== e(  13) =    -4.24411 eV ==== 
     psi = 0.498*[#   7]+0.498*[#  16]
    |psi|^2 = 0.996
==== e(  14) =    -3.77442 eV ==== 
     psi = 0.248*[#   8]+0.248*[#   9]+0.248*[#  17]+0.248*[#  18]+0.001*[#   4]
          +0.001*[#   5]+0.001*[#  13]+0.001*[#  14]
    |psi|^2 = 0.997
==== e(  15) =    -2.00634 eV ==== 
     psi = 0.211*[#   6]+0.211*[#  15]+0.139*[#   8]+0.139*[#   9]+0.139*[#  17]
          +0.139*[#  18]
    |psi|^2 = 0.983
==== e(  16) =     0.44869 eV ==== 
     psi = 0.209*[#   8]+0.209*[#   9]+0.209*[#  17]+0.209*[#  18]+0.017*[#   6]
          +0.017*[#  15]+0.001*[#   4]+0.001*[#   5]+0.001*[#  13]+0.001*[#  14]
          
    |psi|^2 = 0.876

 k =   0.1666666667  0.0000000000  0.0000000000
==== e(   1) =   -24.19523 eV ==== 
     psi = 0.211*[#   4]+0.211*[#   5]+0.211*[#  13]+0.211*[#  14]+0.076*[#   1]
          +0.076*[#  10]
    |psi|^2 = 1.000
==== e(   2) =   -24.17013 eV ==== 
     psi = 0.240*[#   4]+0.240*[#   5]+0.240*[#  13]+0.240*[#  14]+0.019*[#   1]
          +0.019*[#  10]+0.001*[#   8]+0.001*[#   9]+0.001*[#  17]+0.001*[#  18]
          
    |psi|^2 = 1.000
==== e(   3) =   -24.14669 eV ==== 
     psi = 0.384*[#   1]+0.384*[#  10]+0.057*[#   4]+0.057*[#   5]+0.057*[#  13]
          +0.057*[#  14]+0.001*[#   6]+0.001*[#  15]
    |psi|^2 = 1.000
==== e(   4) =   -24.03563 eV ==== 
     psi = 0.250*[#   2]+0.250*[#   3]+0.250*[#  11]+0.250*[#  12]
    |psi|^2 = 1.000
==== e(   5) =   -24.02291 eV ==== 
     psi = 0.250*[#   2]+0.250*[#   3]+0.250*[#  11]+0.250*[#  12]
    |psi|^2 = 1.000
==== e(   6) =   -23.83225 eV ==== 
     psi = 0.230*[#   4]+0.230*[#   5]+0.230*[#  13]+0.230*[#  14]+0.039*[#   1]
          +0.039*[#  10]+0.001*[#   8]+0.001*[#   9]+0.001*[#  17]+0.001*[#  18]
          
    |psi|^2 = 1.000
==== e(   7) =   -23.82343 eV ==== 
     psi = 0.237*[#   4]+0.237*[#   5]+0.237*[#  13]+0.237*[#  14]+0.023*[#   1]
          +0.023*[#  10]+0.001*[#   8]+0.001*[#   9]+0.001*[#  17]+0.001*[#  18]
          
    |psi|^2 = 1.000
==== e(   8) =   -23.80688 eV ==== 
     psi = 0.250*[#   2]+0.250*[#   3]+0.250*[#  11]+0.250*[#  12]
    |psi|^2 = 1.000
==== e(   9) =   -23.79303 eV ==== 
     psi = 0.250*[#   2]+0.250*[#   3]+0.250*[#  11]+0.250*[#  12]
    |psi|^2 = 1.000
==== e(  10) =   -23.73483 eV ==== 
     psi = 0.458*[#   1]+0.458*[#  10]+0.021*[#   4]+0.021*[#   5]+0.021*[#  13]
          +0.021*[#  14]
    |psi|^2 = 1.000
==== e(  11) =   -12.16247 eV ==== 
     psi = 0.472*[#   6]+0.472*[#  15]+0.012*[#   8]+0.012*[#   9]+0.012*[#  17]
          +0.012*[#  18]+0.002*[#   1]+0.002*[#  10]
    |psi|^2 = 0.996
==== e(  12) =    -5.67114 eV ==== 
     psi = 0.276*[#   6]+0.276*[#  15]+0.110*[#   8]+0.110*[#   9]+0.110*[#  17]
          +0.110*[#  18]
    |psi|^2 = 0.997
==== e(  13) =    -4.20951 eV ==== 
     psi = 0.498*[#   7]+0.498*[#  16]
    |psi|^2 = 0.996
==== e(  14) =    -3.84416 eV ==== 
     psi = 0.248*[#   8]+0.248*[#   9]+0.248*[#  17]+0.248*[#  18]+0.001*[#   4]
          +0.001*[#   5]+0.001*[#   6]+0.001*[#  13]+0.001*[#  14]+0.001*[#  15]
          
    |psi|^2 = 0.997
==== e(  15) =    -1.85994 eV ==== 
     psi = 0.211*[#   6]+0.211*[#  15]+0.139*[#   8]+0.139*[#   9]+0.139*[#  17]
          +0.139*[#  18]
    |psi|^2 = 0.981
==== e(  16) =     0.44595 eV ==== 
     psi = 0.206*[#   8]+0.206*[#   9]+0.206*[#  17]+0.206*[#  18]+0.020*[#   6]
          +0.020*[#  15]+0.001*[#   4]+0.001*[#   5]+0.001*[#  13]+0.001*[#  14]
          
    |psi|^2 = 0.869

 k =   0.1833333333  0.0000000000  0.0000000000
==== e(   1) =   -24.20435 eV ==== 
     psi = 0.215*[#   4]+0.215*[#   5]+0.215*[#  13]+0.215*[#  14]+0.067*[#   1]
          +0.067*[#  10]
    |psi|^2 = 1.000
==== e(   2) =   -24.17490 eV ==== 
     psi = 0.238*[#   4]+0.238*[#   5]+0.238*[#  13]+0.238*[#  14]+0.022*[#   1]
          +0.022*[#  10]+0.001*[#   8]+0.001*[#   9]+0.001*[#  17]+0.001*[#  18]
          
    |psi|^2 = 1.000
==== e(   3) =   -24.14657 eV ==== 
     psi = 0.386*[#   1]+0.386*[#  10]+0.056*[#   4]+0.056*[#   5]+0.056*[#  13]
          +0.056*[#  14]+0.001*[#   6]+0.001*[#  15]
    |psi|^2 = 1.000
==== e(   4) =   -24.03653 eV ==== 
     psi = 0.250*[#   2]+0.250*[#   3]+0.250*[#  11]+0.250*[#  12]
    |psi|^2 = 1.000
==== e(   5) =   -24.02119 eV ==== 
     psi = 0.250*[#   2]+0.250*[#   3]+0.250*[#  11]+0.250*[#  12]
    |psi|^2 = 1.000
==== e(   6) =   -23.82591 eV ==== 
     psi = 0.227*[#   4]+0.227*[#   5]+0.227*[#  13]+0.227*[#  14]+0.045*[#   1]
          +0.045*[#  10]+0.001*[#   8]+0.001*[#   9]+0.001*[#  17]+0.001*[#  18]
          
    |psi|^2 = 1.000
==== e(   7) =   -23.81571 eV ==== 
     psi = 0.231*[#   4]+0.231*[#   5]+0.231*[#  13]+0.231*[#  14]+0.035*[#   1]
          +0.035*[#  10]+0.001*[#   8]+0.001*[#   9]+0.001*[#  17]+0.001*[#  18]
          
    |psi|^2 = 1.000
==== e(   8) =   -23.80881 eV ==== 
     psi = 0.250*[#   2]+0.250*[#   3]+0.250*[#  11]+0.250*[#  12]
    |psi|^2 = 1.000
==== e(   9) =   -23.79216 eV ==== 
     psi = 0.250*[#   2]+0.250*[#   3]+0.250*[#  11]+0.250*[#  12]
    |psi|^2 = 1.000
==== e(  10) =   -23.73348 eV ==== 
     psi = 0.442*[#   1]+0.442*[#  10]+0.029*[#   4]+0.029*[#   5]+0.029*[#  13]
          +0.029*[#  14]
    |psi|^2 = 1.000
==== e(  11) =   -12.12545 eV ==== 
     psi = 0.468*[#   6]+0.468*[#  15]+0.014*[#   8]+0.014*[#   9]+0.014*[#  17]
          +0.014*[#  18]+0.002*[#   1]+0.002*[#  10]
    |psi|^2 = 0.996
==== e(  12) =    -5.86432 eV ==== 
     psi = 0.275*[#   6]+0.275*[#  15]+0.111*[#   8]+0.111*[#   9]+0.111*[#  17]
          +0.111*[#  18]
    |psi|^2 = 0.997
==== e(  13) =    -4.17141 eV ==== 
     psi = 0.498*[#   7]+0.498*[#  16]
    |psi|^2 = 0.996
==== e(  14) =    -3.91911 eV ==== 
     psi = 0.247*[#   8]+0.247*[#   9]+0.247*[#  17]+0.247*[#  18]+0.002*[#   6]
          +0.002*[#  15]+0.001*[#   4]+0.001*[#   5]+0.001*[#  13]+0.001*[#  14]
          
    |psi|^2 = 0.997
==== e(  15) =    -1.72077 eV ==== 
     psi = 0.209*[#   6]+0.209*[#  15]+0.140*[#   8]+0.140*[#   9]+0.140*[#  17]
          +0.140*[#  18]
    |psi|^2 = 0.980
==== e(  16) =     0.44831 eV ==== 
     psi = 0.203*[#   8]+0.203*[#   9]+0.203*[#  17]+0.203*[#  18]+0.024*[#   6]
          +0.024*[#  15]+0.001*[#   4]+0.001*[#   5]+0.001*[#  13]+0.001*[#  14]
          
    |psi|^2 = 0.862

 k =   0.2000000000  0.0000000000  0.0000000000
==== e(   1) =   -24.21374 eV ==== 
     psi = 0.219*[#   4]+0.219*[#   5]+0.219*[#  13]+0.219*[#  14]+0.060*[#   1]
          +0.060*[#  10]
    |psi|^2 = 1.000
==== e(   2) =   -24.17960 eV ==== 
     psi = 0.236*[#   4]+0.236*[#   5]+0.236*[#  13]+0.236*[#  14]+0.025*[#   1]
          +0.025*[#  10]+0.001*[#   8]+0.001*[#   9]+0.001*[#  17]+0.001*[#  18]
          
    |psi|^2 = 1.000
==== e(   3) =   -24.14645 eV ==== 
     psi = 0.388*[#   1]+0.388*[#  10]+0.055*[#   4]+0.055*[#   5]+0.055*[#  13]
          +0.055*[#  14]+0.001*[#   6]+0.001*[#  15]
    |psi|^2 = 1.000
==== e(   4) =   -24.03748 eV ==== 
     psi = 0.250*[#   2]+0.250*[#   3]+0.250*[#  11]+0.250*[#  12]
    |psi|^2 = 1.000
==== e(   5) =   -24.01932 eV ==== 
     psi = 0.250*[#   2]+0.250*[#   3]+0.250*[#  11]+0.250*[#  12]
    |psi|^2 = 1.000
==== e(   6) =   -23.81956 eV ==== 
     psi = 0.224*[#   4]+0.224*[#   5]+0.224*[#  13]+0.224*[#  14]+0.051*[#   1]
          +0.051*[#  10]+0.001*[#   8]+0.001*[#   9]+0.001*[#  17]+0.001*[#  18]
          
    |psi|^2 = 1.000
==== e(   7) =   -23.81092 eV ==== 
     psi = 0.250*[#   2]+0.250*[#   3]+0.250*[#  11]+0.250*[#  12]
    |psi|^2 = 1.000
==== e(   8) =   -23.80817 eV ==== 
     psi = 0.223*[#   4]+0.223*[#   5]+0.223*[#  13]+0.223*[#  14]+0.053*[#   1]
          +0.053*[#  10]
    |psi|^2 = 1.000
==== e(   9) =   -23.79122 eV ==== 
     psi = 0.250*[#   2]+0.250*[#   3]+0.250*[#  11]+0.250*[#  12]
    |psi|^2 = 1.000
==== e(  10) =   -23.73166 eV ==== 
     psi = 0.421*[#   1]+0.421*[#  10]+0.039*[#   4]+0.039*[#   5]+0.039*[#  13]
          +0.039*[#  14]
    |psi|^2 = 1.000
==== e(  11) =   -12.08498 eV ==== 
     psi = 0.463*[#   6]+0.463*[#  15]+0.017*[#   8]+0.017*[#   9]+0.017*[#  17]
          +0.017*[#  18]+0.002*[#   1]+0.002*[#  10]
    |psi|^2 = 0.996
==== e(  12) =    -6.05499 eV ==== 
     psi = 0.275*[#   6]+0.275*[#  15]+0.111*[#   8]+0.111*[#   9]+0.111*[#  17]
          +0.111*[#  18]
    |psi|^2 = 0.998
==== e(  13) =    -4.12985 eV ==== 
     psi = 0.498*[#   7]+0.498*[#  16]
    |psi|^2 = 0.995
==== e(  14) =    -3.99866 eV ==== 
     psi = 0.247*[#   8]+0.247*[#   9]+0.247*[#  17]+0.247*[#  18]+0.002*[#   6]
          +0.002*[#  15]+0.001*[#   4]+0.001*[#   5]+0.001*[#  13]+0.001*[#  14]
          
    |psi|^2 = 0.997
==== e(  15) =    -1.58840 eV ==== 
     psi = 0.207*[#   6]+0.207*[#  15]+0.140*[#   8]+0.140*[#   9]+0.140*[#  17]
          +0.140*[#  18]
    |psi|^2 = 0.978
==== e(  16) =     0.45617 eV ==== 
     psi = 0.199*[#   8]+0.199*[#   9]+0.199*[#  17]+0.199*[#  18]+0.027*[#   6]
          +0.027*[#  15]
    |psi|^2 = 0.855

 k =   0.2166666667  0.0000000000  0.0000000000
==== e(   1) =   -24.22328 eV ==== 
     psi = 0.222*[#   4]+0.222*[#   5]+0.222*[#  13]+0.222*[#  14]+0.054*[#   1]
          +0.054*[#  10]
    |psi|^2 = 1.000
==== e(   2) =   -24.18417 eV ==== 
     psi = 0.235*[#   4]+0.235*[#   5]+0.235*[#  13]+0.235*[#  14]+0.029*[#   1]
          +0.029*[#  10]+0.001*[#   8]+0.001*[#   9]+0.001*[#  17]+0.001*[#  18]
          
    |psi|^2 = 1.000
==== e(   3) =   -24.14634 eV ==== 
     psi = 0.387*[#   1]+0.387*[#  10]+0.055*[#   4]+0.055*[#   5]+0.055*[#  13]
          +0.055*[#  14]+0.001*[#   6]+0.001*[#  15]
    |psi|^2 = 1.000
==== e(   4) =   -24.03850 eV ==== 
     psi = 0.250*[#   2]+0.250*[#   3]+0.250*[#  11]+0.250*[#  12]
    |psi|^2 = 1.000
==== e(   5) =   -24.01728 eV ==== 
     psi = 0.250*[#   2]+0.250*[#   3]+0.250*[#  11]+0.250*[#  12]
    |psi|^2 = 1.000
==== e(   6) =   -23.81329 eV ==== 
     psi = 0.220*[#   4]+0.220*[#   5]+0.220*[#  13]+0.220*[#  14]+0.057*[#   1]
          +0.057*[#  10]
    |psi|^2 = 1.000
==== e(   7) =   -23.81319 eV ==== 
     psi = 0.250*[#   2]+0.250*[#   3]+0.250*[#  11]+0.250*[#  12]
    |psi|^2 = 1.000
==== e(   8) =   -23.80104 eV ==== 
     psi = 0.211*[#   4]+0.211*[#   5]+0.211*[#  13]+0.211*[#  14]+0.077*[#   1]
          +0.077*[#  10]
    |psi|^2 = 1.000
==== e(   9) =   -23.79022 eV ==== 
     psi = 0.250*[#   2]+0.250*[#   3]+0.250*[#  11]+0.250*[#  12]
    |psi|^2 = 1.000
==== e(  10) =   -23.72924 eV ==== 
     psi = 0.394*[#   1]+0.394*[#  10]+0.053*[#   4]+0.053*[#   5]+0.053*[#  13]
          +0.053*[#  14]
    |psi|^2 = 1.000
==== e(  11) =   -12.04110 eV ==== 
     psi = 0.458*[#   6]+0.458*[#  15]+0.019*[#   8]+0.019*[#   9]+0.019*[#  17]
          +0.019*[#  18]+0.002*[#   1]+0.002*[#  10]
    |psi|^2 = 0.996
==== e(  12) =    -6.24295 eV ==== 
     psi = 0.275*[#   6]+0.275*[#  15]+0.111*[#   8]+0.111*[#   9]+0.111*[#  17]
          +0.111*[#  18]
    |psi|^2 = 0.998
==== e(  13) =    -4.08486 eV ==== 
     psi = 0.497*[#   7]+0.497*[#  16]
    |psi|^2 = 0.995
==== e(  14) =    -4.08223 eV ==== 
     psi = 0.247*[#   8]+0.247*[#   9]+0.247*[#  17]+0.247*[#  18]+0.003*[#   6]
          +0.003*[#  15]
    |psi|^2 = 0.997
==== e(  15) =    -1.46221 eV ==== 
     psi = 0.205*[#   6]+0.205*[#  15]+0.141*[#   8]+0.141*[#   9]+0.141*[#  17]
          +0.141*[#  18]
    |psi|^2 = 0.976
==== e(  16) =     0.46977 eV ==== 
     psi = 0.196*[#   8]+0.196*[#   9]+0.196*[#  17]+0.196*[#  18]+0.030*[#   6]
          +0.030*[#  15]
    |psi|^2 = 0.848

 k =   0.2333333333  0.0000000000  0.0000000000
==== e(   1) =   -24.23293 eV ==== 
     psi = 0.225*[#   4]+0.225*[#   5]+0.225*[#  13]+0.225*[#  14]+0.048*[#   1]
          +0.048*[#  10]
    |psi|^2 = 1.000
==== e(   2) =   -24.18856 eV ==== 
     psi = 0.233*[#   4]+0.233*[#   5]+0.233*[#  13]+0.233*[#  14]+0.032*[#   1]
          +0.032*[#  10]+0.001*[#   8]+0.001*[#   9]+0.001*[#  17]+0.001*[#  18]
          
    |psi|^2 = 1.000
==== e(   3) =   -24.14623 eV ==== 
     psi = 0.386*[#   1]+0.386*[#  10]+0.056*[#   4]+0.056*[#   5]+0.056*[#  13]
          +0.056*[#  14]+0.001*[#   6]+0.001*[#  15]
    |psi|^2 = 1.000
==== e(   4) =   -24.03957 eV ==== 
     psi = 0.250*[#   2]+0.250*[#   3]+0.250*[#  11]+0.250*[#  12]
    |psi|^2 = 1.000
==== e(   5) =   -24.01509 eV ==== 
     psi = 0.250*[#   2]+0.250*[#   3]+0.250*[#  11]+0.250*[#  12]
    |psi|^2 = 1.000
==== e(   6) =   -23.81563 eV ==== 
     psi = 0.250*[#   2]+0.250*[#   3]+0.250*[#  11]+0.250*[#  12]
    |psi|^2 = 1.000
==== e(   7) =   -23.80714 eV ==== 
     psi = 0.217*[#   4]+0.217*[#   5]+0.217*[#  13]+0.217*[#  14]+0.064*[#   1]
          +0.064*[#  10]
    |psi|^2 = 1.000
==== e(   8) =   -23.79451 eV ==== 
     psi = 0.196*[#   4]+0.196*[#   5]+0.196*[#  13]+0.196*[#  14]+0.107*[#   1]
          +0.107*[#  10]
    |psi|^2 = 1.000
==== e(   9) =   -23.78918 eV ==== 
     psi = 0.250*[#   2]+0.250*[#   3]+0.250*[#  11]+0.250*[#  12]
    |psi|^2 = 1.000
==== e(  10) =   -23.72609 eV ==== 
     psi = 0.360*[#   1]+0.360*[#  10]+0.070*[#   4]+0.070*[#   5]+0.070*[#  13]
          +0.070*[#  14]
    |psi|^2 = 1.000
==== e(  11) =   -11.99385 eV ==== 
     psi = 0.453*[#   6]+0.453*[#  15]+0.021*[#   8]+0.021*[#   9]+0.021*[#  17]
          +0.021*[#  18]+0.002*[#   1]+0.002*[#  10]
    |psi|^2 = 0.996
==== e(  12) =    -6.42801 eV ==== 
     psi = 0.276*[#   6]+0.276*[#  15]+0.111*[#   8]+0.111*[#   9]+0.111*[#  17]
          +0.111*[#  18]
    |psi|^2 = 0.998
==== e(  13) =    -4.16919 eV ==== 
     psi = 0.247*[#   8]+0.247*[#   9]+0.247*[#  17]+0.247*[#  18]+0.003*[#   6]
          +0.003*[#  15]
    |psi|^2 = 0.997
==== e(  14) =    -4.03652 eV ==== 
     psi = 0.497*[#   7]+0.497*[#  16]
    |psi|^2 = 0.995
==== e(  15) =    -1.34142 eV ==== 
     psi = 0.202*[#   6]+0.202*[#  15]+0.142*[#   8]+0.142*[#   9]+0.142*[#  17]
          +0.142*[#  18]
    |psi|^2 = 0.975
==== e(  16) =     0.48923 eV ==== 
     psi = 0.193*[#   8]+0.193*[#   9]+0.193*[#  17]+0.193*[#  18]+0.034*[#   6]
          +0.034*[#  15]
    |psi|^2 = 0.841

 k =   0.2500000000  0.0000000000  0.0000000000
==== e(   1) =   -24.24260 eV ==== 
     psi = 0.227*[#   4]+0.227*[#   5]+0.227*[#  13]+0.227*[#  14]+0.044*[#   1]
          +0.044*[#  10]
    |psi|^2 = 1.000
==== e(   2) =   -24.19272 eV ==== 
     psi = 0.231*[#   4]+0.231*[#   5]+0.231*[#  13]+0.231*[#  14]+0.036*[#   1]
          +0.036*[#  10]
    |psi|^2 = 1.000
==== e(   3) =   -24.14616 eV ==== 
     psi = 0.384*[#   1]+0.384*[#  10]+0.057*[#   4]+0.057*[#   5]+0.057*[#  13]
          +0.057*[#  14]+0.001*[#   6]+0.001*[#  15]
    |psi|^2 = 1.000
==== e(   4) =   -24.04069 eV ==== 
     psi = 0.250*[#   2]+0.250*[#   3]+0.250*[#  11]+0.250*[#  12]
    |psi|^2 = 1.000
==== e(   5) =   -24.01275 eV ==== 
     psi = 0.250*[#   2]+0.250*[#   3]+0.250*[#  11]+0.250*[#  12]
    |psi|^2 = 1.000
==== e(   6) =   -23.81822 eV ==== 
     psi = 0.250*[#   2]+0.250*[#   3]+0.250*[#  11]+0.250*[#  12]
    |psi|^2 = 1.000
==== e(   7) =   -23.80118 eV ==== 
     psi = 0.214*[#   4]+0.214*[#   5]+0.214*[#  13]+0.214*[#  14]+0.070*[#   1]
          +0.070*[#  10]
    |psi|^2 = 1.000
==== e(   8) =   -23.78878 eV ==== 
     psi = 0.178*[#   4]+0.178*[#   5]+0.178*[#  13]+0.178*[#  14]+0.143*[#   1]
          +0.143*[#  10]
    |psi|^2 = 1.000
==== e(   9) =   -23.78809 eV ==== 
     psi = 0.250*[#   2]+0.250*[#   3]+0.250*[#  11]+0.250*[#  12]
    |psi|^2 = 1.000
==== e(  10) =   -23.72209 eV ==== 
     psi = 0.320*[#   1]+0.320*[#  10]+0.090*[#   4]+0.090*[#   5]+0.090*[#  13]
          +0.090*[#  14]
    |psi|^2 = 1.000
==== e(  11) =   -11.94325 eV ==== 
     psi = 0.448*[#   6]+0.448*[#  15]+0.024*[#   8]+0.024*[#   9]+0.024*[#  17]
          +0.024*[#  18]+0.001*[#   1]+0.001*[#  10]
    |psi|^2 = 0.996
==== e(  12) =    -6.61000 eV ==== 
     psi = 0.276*[#   6]+0.276*[#  15]+0.110*[#   8]+0.110*[#   9]+0.110*[#  17]
          +0.110*[#  18]
    |psi|^2 = 0.998
==== e(  13) =    -4.25895 eV ==== 
     psi = 0.246*[#   8]+0.246*[#   9]+0.246*[#  17]+0.246*[#  18]+0.004*[#   6]
          +0.004*[#  15]
    |psi|^2 = 0.997
==== e(  14) =    -3.98487 eV ==== 
     psi = 0.497*[#   7]+0.497*[#  16]
    |psi|^2 = 0.994
==== e(  15) =    -1.22521 eV ==== 
     psi = 0.199*[#   6]+0.199*[#  15]+0.143*[#   8]+0.143*[#   9]+0.143*[#  17]
          +0.143*[#  18]
    |psi|^2 = 0.973
==== e(  16) =     0.51459 eV ==== 
     psi = 0.189*[#   8]+0.189*[#   9]+0.189*[#  17]+0.189*[#  18]+0.037*[#   6]
          +0.037*[#  15]
    |psi|^2 = 0.834

 k =   0.2666666667  0.0000000000  0.0000000000
==== e(   1) =   -24.25224 eV ==== 
     psi = 0.229*[#   4]+0.229*[#   5]+0.229*[#  13]+0.229*[#  14]+0.040*[#   1]
          +0.040*[#  10]
    |psi|^2 = 1.000
==== e(   2) =   -24.19662 eV ==== 
     psi = 0.229*[#   4]+0.229*[#   5]+0.229*[#  13]+0.229*[#  14]+0.040*[#   1]
          +0.040*[#  10]
    |psi|^2 = 1.000
==== e(   3) =   -24.14611 eV ==== 
     psi = 0.382*[#   1]+0.382*[#  10]+0.058*[#   4]+0.058*[#   5]+0.058*[#  13]
          +0.058*[#  14]+0.001*[#   6]+0.001*[#  15]
    |psi|^2 = 1.000
==== e(   4) =   -24.04184 eV ==== 
     psi = 0.250*[#   2]+0.250*[#   3]+0.250*[#  11]+0.250*[#  12]
    |psi|^2 = 1.000
==== e(   5) =   -24.01025 eV ==== 
     psi = 0.250*[#   2]+0.250*[#   3]+0.250*[#  11]+0.250*[#  12]
    |psi|^2 = 1.000
==== e(   6) =   -23.82096 eV ==== 
     psi = 0.250*[#   2]+0.250*[#   3]+0.250*[#  11]+0.250*[#  12]
    |psi|^2 = 1.000
==== e(   7) =   -23.79545 eV ==== 
     psi = 0.211*[#   4]+0.211*[#   5]+0.211*[#  13]+0.211*[#  14]+0.077*[#   1]
          +0.077*[#  10]
    |psi|^2 = 1.000
==== e(   8) =   -23.78697 eV ==== 
     psi = 0.250*[#   2]+0.250*[#   3]+0.250*[#  11]+0.250*[#  12]
    |psi|^2 = 1.000
==== e(   9) =   -23.78395 eV ==== 
     psi = 0.183*[#   1]+0.183*[#  10]+0.158*[#   4]+0.158*[#   5]+0.158*[#  13]
          +0.158*[#  14]
    |psi|^2 = 1.000
==== e(  10) =   -23.71717 eV ==== 
     psi = 0.277*[#   1]+0.277*[#  10]+0.111*[#   4]+0.111*[#   5]+0.111*[#  13]
          +0.111*[#  14]
    |psi|^2 = 1.000
==== e(  11) =   -11.88936 eV ==== 
     psi = 0.443*[#   6]+0.443*[#  15]+0.026*[#   8]+0.026*[#   9]+0.026*[#  17]
          +0.026*[#  18]+0.001*[#   1]+0.001*[#  10]
    |psi|^2 = 0.996
==== e(  12) =    -6.78879 eV ==== 
     psi = 0.277*[#   6]+0.277*[#  15]+0.110*[#   8]+0.110*[#   9]+0.110*[#  17]
          +0.110*[#  18]
    |psi|^2 = 0.998
==== e(  13) =    -4.35090 eV ==== 
     psi = 0.246*[#   8]+0.246*[#   9]+0.246*[#  17]+0.246*[#  18]+0.004*[#   6]
          +0.004*[#  15]
    |psi|^2 = 0.997
==== e(  14) =    -3.92999 eV ==== 
     psi = 0.497*[#   7]+0.497*[#  16]
    |psi|^2 = 0.994
==== e(  15) =    -1.11273 eV ==== 
     psi = 0.196*[#   6]+0.196*[#  15]+0.144*[#   8]+0.144*[#   9]+0.144*[#  17]
          +0.144*[#  18]
    |psi|^2 = 0.971
==== e(  16) =     0.54583 eV ==== 
     psi = 0.186*[#   8]+0.186*[#   9]+0.186*[#  17]+0.186*[#  18]+0.040*[#   6]
          +0.040*[#  15]
    |psi|^2 = 0.827

 k =   0.2833333333  0.0000000000  0.0000000000
==== e(   1) =   -24.26179 eV ==== 
     psi = 0.231*[#   4]+0.231*[#   5]+0.231*[#  13]+0.231*[#  14]+0.036*[#   1]
          +0.036*[#  10]
    |psi|^2 = 1.000
==== e(   2) =   -24.20020 eV ==== 
     psi = 0.227*[#   4]+0.227*[#   5]+0.227*[#  13]+0.227*[#  14]+0.044*[#   1]
          +0.044*[#  10]
    |psi|^2 = 1.000
==== e(   3) =   -24.14611 eV ==== 
     psi = 0.379*[#   1]+0.379*[#  10]+0.060*[#   4]+0.060*[#   5]+0.060*[#  13]
          +0.060*[#  14]+0.001*[#   6]+0.001*[#  15]
    |psi|^2 = 1.000
==== e(   4) =   -24.04303 eV ==== 
     psi = 0.250*[#   2]+0.250*[#   3]+0.250*[#  11]+0.250*[#  12]
    |psi|^2 = 1.000
==== e(   5) =   -24.00761 eV ==== 
     psi = 0.250*[#   2]+0.250*[#   3]+0.250*[#  11]+0.250*[#  12]
    |psi|^2 = 1.000
==== e(   6) =   -23.82386 eV ==== 
     psi = 0.250*[#   2]+0.250*[#   3]+0.250*[#  11]+0.250*[#  12]
    |psi|^2 = 1.000
==== e(   7) =   -23.78999 eV ==== 
     psi = 0.207*[#   4]+0.207*[#   5]+0.207*[#  13]+0.207*[#  14]+0.084*[#   1]
          +0.084*[#  10]
    |psi|^2 = 1.000
==== e(   8) =   -23.78581 eV ==== 
     psi = 0.250*[#   2]+0.250*[#   3]+0.250*[#  11]+0.250*[#  12]
    |psi|^2 = 1.000
==== e(   9) =   -23.78006 eV ==== 
     psi = 0.222*[#   1]+0.222*[#  10]+0.138*[#   4]+0.138*[#   5]+0.138*[#  13]
          +0.138*[#  14]
    |psi|^2 = 1.000
==== e(  10) =   -23.71137 eV ==== 
     psi = 0.233*[#   1]+0.233*[#  10]+0.133*[#   4]+0.133*[#   5]+0.133*[#  13]
          +0.133*[#  14]
    |psi|^2 = 1.000
==== e(  11) =   -11.83222 eV ==== 
     psi = 0.438*[#   6]+0.438*[#  15]+0.029*[#   8]+0.029*[#   9]+0.029*[#  17]
          +0.029*[#  18]+0.001*[#   1]+0.001*[#  10]
    |psi|^2 = 0.996
==== e(  12) =    -6.96424 eV ==== 
     psi = 0.279*[#   6]+0.279*[#  15]+0.109*[#   8]+0.109*[#   9]+0.109*[#  17]
          +0.109*[#  18]
    |psi|^2 = 0.998
==== e(  13) =    -4.44447 eV ==== 
     psi = 0.246*[#   8]+0.246*[#   9]+0.246*[#  17]+0.246*[#  18]+0.005*[#   6]
          +0.005*[#  15]
    |psi|^2 = 0.997
==== e(  14) =    -3.87194 eV ==== 
     psi = 0.497*[#   7]+0.497*[#  16]
    |psi|^2 = 0.994
==== e(  15) =    -1.00315 eV ==== 
     psi = 0.194*[#   6]+0.194*[#  15]+0.145*[#   8]+0.145*[#   9]+0.145*[#  17]
          +0.145*[#  18]
    |psi|^2 = 0.969
==== e(  16) =     0.58918 eV ==== 
     psi = 0.467*[#   7]+0.467*[#  16]
    |psi|^2 = 0.935

 k =   0.3000000000  0.0000000000  0.0000000000
==== e(   1) =   -24.27120 eV ==== 
     psi = 0.233*[#   4]+0.233*[#   5]+0.233*[#  13]+0.233*[#  14]+0.032*[#   1]
          +0.032*[#  10]
    |psi|^2 = 1.000
==== e(   2) =   -24.20345 eV ==== 
     psi = 0.225*[#   4]+0.225*[#   5]+0.225*[#  13]+0.225*[#  14]+0.049*[#   1]
          +0.049*[#  10]
    |psi|^2 = 1.000
==== e(   3) =   -24.14616 eV ==== 
     psi = 0.375*[#   1]+0.375*[#  10]+0.061*[#   4]+0.061*[#   5]+0.061*[#  13]
          +0.061*[#  14]+0.001*[#   6]+0.001*[#  15]
    |psi|^2 = 1.000
==== e(   4) =   -24.04425 eV ==== 
     psi = 0.250*[#   2]+0.250*[#   3]+0.250*[#  11]+0.250*[#  12]
    |psi|^2 = 1.000
==== e(   5) =   -24.00481 eV ==== 
     psi = 0.250*[#   2]+0.250*[#   3]+0.250*[#  11]+0.250*[#  12]
    |psi|^2 = 1.000
==== e(   6) =   -23.82690 eV ==== 
     psi = 0.250*[#   2]+0.250*[#   3]+0.250*[#  11]+0.250*[#  12]
    |psi|^2 = 1.000
==== e(   7) =   -23.78482 eV ==== 
     psi = 0.204*[#   4]+0.204*[#   5]+0.204*[#  13]+0.204*[#  14]+0.091*[#   1]
          +0.091*[#  10]
    |psi|^2 = 1.000
==== e(   8) =   -23.78462 eV ==== 
     psi = 0.250*[#   2]+0.250*[#   3]+0.250*[#  11]+0.250*[#  12]
    |psi|^2 = 1.000
==== e(   9) =   -23.77703 eV ==== 
     psi = 0.258*[#   1]+0.258*[#  10]+0.121*[#   4]+0.121*[#   5]+0.121*[#  13]
          +0.121*[#  14]
    |psi|^2 = 1.000
==== e(  10) =   -23.70481 eV ==== 
     psi = 0.193*[#   1]+0.193*[#  10]+0.153*[#   4]+0.153*[#   5]+0.153*[#  13]
          +0.153*[#  14]
    |psi|^2 = 1.000
==== e(  11) =   -11.77190 eV ==== 
     psi = 0.433*[#   6]+0.433*[#  15]+0.031*[#   8]+0.031*[#   9]+0.031*[#  17]
          +0.031*[#  18]+0.001*[#   1]+0.001*[#  10]
    |psi|^2 = 0.996
==== e(  12) =    -7.13626 eV ==== 
     psi = 0.280*[#   6]+0.280*[#  15]+0.109*[#   8]+0.109*[#   9]+0.109*[#  17]
          +0.109*[#  18]
    |psi|^2 = 0.998
==== e(  13) =    -4.53909 eV ==== 
     psi = 0.246*[#   8]+0.246*[#   9]+0.246*[#  17]+0.246*[#  18]+0.005*[#   6]
          +0.005*[#  15]
    |psi|^2 = 0.997
==== e(  14) =    -3.81080 eV ==== 
     psi = 0.496*[#   7]+0.496*[#  16]
    |psi|^2 = 0.993
==== e(  15) =    -0.89568 eV ==== 
     psi = 0.191*[#   6]+0.191*[#  15]+0.146*[#   8]+0.146*[#   9]+0.146*[#  17]
          +0.146*[#  18]
    |psi|^2 = 0.967
==== e(  16) =     0.45299 eV ==== 
     psi = 0.468*[#   7]+0.468*[#  16]
    |psi|^2 = 0.936

 k =   0.3166666667  0.0000000000  0.0000000000
==== e(   1) =   -24.28043 eV ==== 
     psi = 0.235*[#   4]+0.235*[#   5]+0.235*[#  13]+0.235*[#  14]+0.029*[#   1]
          +0.029*[#  10]
    |psi|^2 = 1.000
==== e(   2) =   -24.20635 eV ==== 
     psi = 0.222*[#   4]+0.222*[#   5]+0.222*[#  13]+0.222*[#  14]+0.053*[#   1]
          +0.053*[#  10]
    |psi|^2 = 1.000
==== e(   3) =   -24.14627 eV ==== 
     psi = 0.372*[#   1]+0.372*[#  10]+0.063*[#   4]+0.063*[#   5]+0.063*[#  13]
          +0.063*[#  14]+0.001*[#   6]+0.001*[#  15]
    |psi|^2 = 1.000
==== e(   4) =   -24.04549 eV ==== 
     psi = 0.250*[#   2]+0.250*[#   3]+0.250*[#  11]+0.250*[#  12]
    |psi|^2 = 1.000
==== e(   5) =   -24.00189 eV ==== 
     psi = 0.250*[#   2]+0.250*[#   3]+0.250*[#  11]+0.250*[#  12]
    |psi|^2 = 1.000
==== e(   6) =   -23.83008 eV ==== 
     psi = 0.250*[#   2]+0.250*[#   3]+0.250*[#  11]+0.250*[#  12]
    |psi|^2 = 1.000
==== e(   7) =   -23.78342 eV ==== 
     psi = 0.250*[#   2]+0.250*[#   3]+0.250*[#  11]+0.250*[#  12]
    |psi|^2 = 1.000
==== e(   8) =   -23.77998 eV ==== 
     psi = 0.200*[#   4]+0.200*[#   5]+0.200*[#  13]+0.200*[#  14]+0.098*[#   1]
          +0.098*[#  10]
    |psi|^2 = 1.000
==== e(   9) =   -23.77474 eV ==== 
     psi = 0.288*[#   1]+0.288*[#  10]+0.106*[#   4]+0.106*[#   5]+0.106*[#  13]
          +0.106*[#  14]
    |psi|^2 = 1.000
==== e(  10) =   -23.69767 eV ==== 
     psi = 0.170*[#   4]+0.170*[#   5]+0.170*[#  13]+0.170*[#  14]+0.159*[#   1]
          +0.159*[#  10]
    |psi|^2 = 1.000
==== e(  11) =   -11.70844 eV ==== 
     psi = 0.428*[#   6]+0.428*[#  15]+0.034*[#   8]+0.034*[#   9]+0.034*[#  17]
          +0.034*[#  18]+0.001*[#   1]+0.001*[#  10]
    |psi|^2 = 0.996
==== e(  12) =    -7.30473 eV ==== 
     psi = 0.282*[#   6]+0.282*[#  15]+0.108*[#   8]+0.108*[#   9]+0.108*[#  17]
          +0.108*[#  18]
    |psi|^2 = 0.998
==== e(  13) =    -4.63423 eV ==== 
     psi = 0.245*[#   8]+0.245*[#   9]+0.245*[#  17]+0.245*[#  18]+0.006*[#   6]
          +0.006*[#  15]
    |psi|^2 = 0.997
==== e(  14) =    -3.74667 eV ==== 
     psi = 0.496*[#   7]+0.496*[#  16]
    |psi|^2 = 0.993
==== e(  15) =    -0.78962 eV ==== 
     psi = 0.188*[#   6]+0.188*[#  15]+0.147*[#   8]+0.147*[#   9]+0.147*[#  17]
          +0.147*[#  18]
    |psi|^2 = 0.965
==== e(  16) =     0.31736 eV ==== 
     psi = 0.468*[#   7]+0.468*[#  16]
    |psi|^2 = 0.938

 k =   0.3333333333  0.0000000000  0.0000000000
==== e(   1) =   -24.28944 eV ==== 
     psi = 0.236*[#   4]+0.236*[#   5]+0.236*[#  13]+0.236*[#  14]+0.026*[#   1]
          +0.026*[#  10]
    |psi|^2 = 1.000
==== e(   2) =   -24.20887 eV ==== 
     psi = 0.220*[#   4]+0.220*[#   5]+0.220*[#  13]+0.220*[#  14]+0.058*[#   1]
          +0.058*[#  10]
    |psi|^2 = 1.000
==== e(   3) =   -24.14645 eV ==== 
     psi = 0.367*[#   1]+0.367*[#  10]+0.065*[#   4]+0.065*[#   5]+0.065*[#  13]
          +0.065*[#  14]+0.001*[#   6]+0.001*[#  15]
    |psi|^2 = 1.000
==== e(   4) =   -24.04674 eV ==== 
     psi = 0.250*[#   2]+0.250*[#   3]+0.250*[#  11]+0.250*[#  12]
    |psi|^2 = 1.000
==== e(   5) =   -23.99882 eV ==== 
     psi = 0.250*[#   2]+0.250*[#   3]+0.250*[#  11]+0.250*[#  12]
    |psi|^2 = 1.000
==== e(   6) =   -23.83338 eV ==== 
     psi = 0.250*[#   2]+0.250*[#   3]+0.250*[#  11]+0.250*[#  12]
    |psi|^2 = 1.000
==== e(   7) =   -23.78222 eV ==== 
     psi = 0.250*[#   2]+0.250*[#   3]+0.250*[#  11]+0.250*[#  12]
    |psi|^2 = 1.000
==== e(   8) =   -23.77549 eV ==== 
     psi = 0.197*[#   4]+0.197*[#   5]+0.197*[#  13]+0.197*[#  14]+0.105*[#   1]
          +0.105*[#  10]
    |psi|^2 = 1.000
==== e(   9) =   -23.77305 eV ==== 
     psi = 0.312*[#   1]+0.312*[#  10]+0.093*[#   4]+0.093*[#   5]+0.093*[#  13]
          +0.093*[#  14]
    |psi|^2 = 1.000
==== e(  10) =   -23.69011 eV ==== 
     psi = 0.185*[#   4]+0.185*[#   5]+0.185*[#  13]+0.185*[#  14]+0.130*[#   1]
          +0.130*[#  10]
    |psi|^2 = 1.000
==== e(  11) =   -11.64194 eV ==== 
     psi = 0.423*[#   6]+0.423*[#  15]+0.036*[#   8]+0.036*[#   9]+0.036*[#  17]
          +0.036*[#  18]+0.001*[#   1]+0.001*[#  10]
    |psi|^2 = 0.996
==== e(  12) =    -7.46959 eV ==== 
     psi = 0.284*[#   6]+0.284*[#  15]+0.107*[#   8]+0.107*[#   9]+0.107*[#  17]
          +0.107*[#  18]
    |psi|^2 = 0.998
==== e(  13) =    -4.72938 eV ==== 
     psi = 0.245*[#   8]+0.245*[#   9]+0.245*[#  17]+0.245*[#  18]+0.006*[#   6]
          +0.006*[#  15]
    |psi|^2 = 0.997
==== e(  14) =    -3.67964 eV ==== 
     psi = 0.496*[#   7]+0.496*[#  16]
    |psi|^2 = 0.992
==== e(  15) =    -0.68433 eV ==== 
     psi = 0.186*[#   6]+0.186*[#  15]+0.147*[#   8]+0.147*[#   9]+0.147*[#  17]
          +0.147*[#  18]
    |psi|^2 = 0.962
==== e(  16) =     0.18265 eV ==== 
     psi = 0.469*[#   7]+0.469*[#  16]
    |psi|^2 = 0.940

 k =   0.3500000000  0.0000000000  0.0000000000
==== e(   1) =   -24.29819 eV ==== 
     psi = 0.238*[#   4]+0.238*[#   5]+0.238*[#  13]+0.238*[#  14]+0.023*[#   1]
          +0.023*[#  10]
    |psi|^2 = 1.000
==== e(   2) =   -24.21101 eV ==== 
     psi = 0.218*[#   4]+0.218*[#   5]+0.218*[#  13]+0.218*[#  14]+0.063*[#   1]
          +0.063*[#  10]
    |psi|^2 = 1.000
==== e(   3) =   -24.14671 eV ==== 
     psi = 0.362*[#   1]+0.362*[#  10]+0.068*[#   4]+0.068*[#   5]+0.068*[#  13]
          +0.068*[#  14]+0.001*[#   6]+0.001*[#  15]
    |psi|^2 = 1.000
==== e(   4) =   -24.04799 eV ==== 
     psi = 0.250*[#   2]+0.250*[#   3]+0.250*[#  11]+0.250*[#  12]
    |psi|^2 = 1.000
==== e(   5) =   -23.99562 eV ==== 
     psi = 0.250*[#   2]+0.250*[#   3]+0.250*[#  11]+0.250*[#  12]
    |psi|^2 = 1.000
==== e(   6) =   -23.83682 eV ==== 
     psi = 0.250*[#   2]+0.250*[#   3]+0.250*[#  11]+0.250*[#  12]
    |psi|^2 = 1.000
==== e(   7) =   -23.78101 eV ==== 
     psi = 0.250*[#   2]+0.250*[#   3]+0.250*[#  11]+0.250*[#  12]
    |psi|^2 = 1.000
==== e(   8) =   -23.77181 eV ==== 
     psi = 0.331*[#   1]+0.331*[#  10]+0.084*[#   4]+0.084*[#   5]+0.084*[#  13]
          +0.084*[#  14]
    |psi|^2 = 1.000
==== e(   9) =   -23.77136 eV ==== 
     psi = 0.193*[#   4]+0.193*[#   5]+0.193*[#  13]+0.193*[#  14]+0.113*[#   1]
          +0.113*[#  10]
    |psi|^2 = 1.000
==== e(  10) =   -23.68231 eV ==== 
     psi = 0.196*[#   4]+0.196*[#   5]+0.196*[#  13]+0.196*[#  14]+0.106*[#   1]
          +0.106*[#  10]
    |psi|^2 = 1.000
==== e(  11) =   -11.57248 eV ==== 
     psi = 0.419*[#   6]+0.419*[#  15]+0.039*[#   8]+0.039*[#   9]+0.039*[#  17]
          +0.039*[#  18]+0.001*[#   1]+0.001*[#  10]
    |psi|^2 = 0.996
==== e(  12) =    -7.63075 eV ==== 
     psi = 0.286*[#   6]+0.286*[#  15]+0.106*[#   8]+0.106*[#   9]+0.106*[#  17]
          +0.106*[#  18]
    |psi|^2 = 0.998
==== e(  13) =    -4.82404 eV ==== 
     psi = 0.245*[#   8]+0.245*[#   9]+0.245*[#  17]+0.245*[#  18]+0.007*[#   6]
          +0.007*[#  15]
    |psi|^2 = 0.997
==== e(  14) =    -3.60982 eV ==== 
     psi = 0.495*[#   7]+0.495*[#  16]
    |psi|^2 = 0.992
==== e(  15) =    -0.57924 eV ==== 
     psi = 0.183*[#   6]+0.183*[#  15]+0.148*[#   8]+0.148*[#   9]+0.148*[#  17]
          +0.148*[#  18]
    |psi|^2 = 0.960
==== e(  16) =     0.04917 eV ==== 
     psi = 0.470*[#   7]+0.470*[#  16]
    |psi|^2 = 0.942

 k =   0.3666666667  0.0000000000  0.0000000000
==== e(   1) =   -24.30666 eV ==== 
     psi = 0.239*[#   4]+0.239*[#   5]+0.239*[#  13]+0.239*[#  14]+0.021*[#   1]
          +0.021*[#  10]
    |psi|^2 = 1.000
==== e(   2) =   -24.21275 eV ==== 
     psi = 0.215*[#   4]+0.215*[#   5]+0.215*[#  13]+0.215*[#  14]+0.068*[#   1]
          +0.068*[#  10]
    |psi|^2 = 1.000
==== e(   3) =   -24.14706 eV ==== 
     psi = 0.357*[#   1]+0.357*[#  10]+0.070*[#   4]+0.070*[#   5]+0.070*[#  13]
          +0.070*[#  14]+0.001*[#   6]+0.001*[#  15]
    |psi|^2 = 1.000
==== e(   4) =   -24.04925 eV ==== 
     psi = 0.250*[#   2]+0.250*[#   3]+0.250*[#  11]+0.250*[#  12]
    |psi|^2 = 1.000
==== e(   5) =   -23.99228 eV ==== 
     psi = 0.250*[#   2]+0.250*[#   3]+0.250*[#  11]+0.250*[#  12]
    |psi|^2 = 1.000
==== e(   6) =   -23.84038 eV ==== 
     psi = 0.250*[#   2]+0.250*[#   3]+0.250*[#  11]+0.250*[#  12]
    |psi|^2 = 1.000
==== e(   7) =   -23.77980 eV ==== 
     psi = 0.250*[#   2]+0.250*[#   3]+0.250*[#  11]+0.250*[#  12]
    |psi|^2 = 1.000
==== e(   8) =   -23.77093 eV ==== 
     psi = 0.345*[#   1]+0.345*[#  10]+0.077*[#   4]+0.077*[#   5]+0.077*[#  13]
          +0.077*[#  14]
    |psi|^2 = 1.000
==== e(   9) =   -23.76762 eV ==== 
     psi = 0.189*[#   4]+0.189*[#   5]+0.189*[#  13]+0.189*[#  14]+0.121*[#   1]
          +0.121*[#  10]
    |psi|^2 = 1.000
==== e(  10) =   -23.67443 eV ==== 
     psi = 0.206*[#   4]+0.206*[#   5]+0.206*[#  13]+0.206*[#  14]+0.087*[#   1]
          +0.087*[#  10]
    |psi|^2 = 1.000
==== e(  11) =   -11.50015 eV ==== 
     psi = 0.414*[#   6]+0.414*[#  15]+0.041*[#   8]+0.041*[#   9]+0.041*[#  17]
          +0.041*[#  18]+0.001*[#   1]+0.001*[#  10]
    |psi|^2 = 0.996
==== e(  12) =    -7.78814 eV ==== 
     psi = 0.288*[#   6]+0.288*[#  15]+0.105*[#   8]+0.105*[#   9]+0.105*[#  17]
          +0.105*[#  18]
    |psi|^2 = 0.998
==== e(  13) =    -4.91774 eV ==== 
     psi = 0.245*[#   8]+0.245*[#   9]+0.245*[#  17]+0.245*[#  18]+0.007*[#   6]
          +0.007*[#  15]
    |psi|^2 = 0.997
==== e(  14) =    -3.53732 eV ==== 
     psi = 0.495*[#   7]+0.495*[#  16]
    |psi|^2 = 0.991
==== e(  15) =    -0.47384 eV ==== 
     psi = 0.181*[#   6]+0.181*[#  15]+0.148*[#   8]+0.148*[#   9]+0.148*[#  17]
          +0.148*[#  18]
    |psi|^2 = 0.957
==== e(  16) =    -0.08278 eV ==== 
     psi = 0.471*[#   7]+0.471*[#  16]
    |psi|^2 = 0.944

 k =   0.3833333333  0.0000000000  0.0000000000
==== e(   1) =   -24.31481 eV ==== 
     psi = 0.240*[#   4]+0.240*[#   5]+0.240*[#  13]+0.240*[#  14]+0.019*[#   1]
          +0.019*[#  10]
    |psi|^2 = 1.000
==== e(   2) =   -24.21409 eV ==== 
     psi = 0.213*[#   4]+0.213*[#   5]+0.213*[#  13]+0.213*[#  14]+0.073*[#   1]
          +0.073*[#  10]
    |psi|^2 = 1.000
==== e(   3) =   -24.14751 eV ==== 
     psi = 0.352*[#   1]+0.352*[#  10]+0.073*[#   4]+0.073*[#   5]+0.073*[#  13]
          +0.073*[#  14]+0.001*[#   6]+0.001*[#  15]
    |psi|^2 = 1.000
==== e(   4) =   -24.05049 eV ==== 
     psi = 0.250*[#   2]+0.250*[#   3]+0.250*[#  11]+0.250*[#  12]
    |psi|^2 = 1.000
==== e(   5) =   -23.98882 eV ==== 
     psi = 0.250*[#   2]+0.250*[#   3]+0.250*[#  11]+0.250*[#  12]
    |psi|^2 = 1.000
==== e(   6) =   -23.84405 eV ==== 
     psi = 0.250*[#   2]+0.250*[#   3]+0.250*[#  11]+0.250*[#  12]
    |psi|^2 = 1.000
==== e(   7) =   -23.77861 eV ==== 
     psi = 0.250*[#   2]+0.250*[#   3]+0.250*[#  11]+0.250*[#  12]
    |psi|^2 = 1.000
==== e(   8) =   -23.77030 eV ==== 
     psi = 0.355*[#   1]+0.355*[#  10]+0.072*[#   4]+0.072*[#   5]+0.072*[#  13]
          +0.072*[#  14]
    |psi|^2 = 1.000
==== e(   9) =   -23.76426 eV ==== 
     psi = 0.185*[#   4]+0.185*[#   5]+0.185*[#  13]+0.185*[#  14]+0.129*[#   1]
          +0.129*[#  10]
    |psi|^2 = 1.000
==== e(  10) =   -23.66658 eV ==== 
     psi = 0.214*[#   4]+0.214*[#   5]+0.214*[#  13]+0.214*[#  14]+0.072*[#   1]
          +0.072*[#  10]
    |psi|^2 = 1.000
==== e(  11) =   -11.42506 eV ==== 
     psi = 0.409*[#   6]+0.409*[#  15]+0.044*[#   8]+0.044*[#   9]+0.044*[#  17]
          +0.044*[#  18]+0.001*[#   1]+0.001*[#  10]
    |psi|^2 = 0.996
==== e(  12) =    -7.94171 eV ==== 
     psi = 0.291*[#   6]+0.291*[#  15]+0.103*[#   8]+0.103*[#   9]+0.103*[#  17]
          +0.103*[#  18]
    |psi|^2 = 0.998
==== e(  13) =    -5.01004 eV ==== 
     psi = 0.245*[#   8]+0.245*[#   9]+0.245*[#  17]+0.245*[#  18]+0.007*[#   6]
          +0.007*[#  15]
    |psi|^2 = 0.997
==== e(  14) =    -3.46228 eV ==== 
     psi = 0.495*[#   7]+0.495*[#  16]
    |psi|^2 = 0.991
==== e(  15) =    -0.36772 eV ==== 
     psi = 0.179*[#   6]+0.179*[#  15]+0.149*[#   8]+0.149*[#   9]+0.149*[#  17]
          +0.149*[#  18]
    |psi|^2 = 0.955
==== e(  16) =    -0.21297 eV ==== 
     psi = 0.473*[#   7]+0.473*[#  16]
    |psi|^2 = 0.946

 k =   0.4000000000  0.0000000000  0.0000000000
==== e(   1) =   -24.32261 eV ==== 
     psi = 0.241*[#   4]+0.241*[#   5]+0.241*[#  13]+0.241*[#  14]+0.016*[#   1]
          +0.016*[#  10]
    |psi|^2 = 1.000
==== e(   2) =   -24.21501 eV ==== 
     psi = 0.210*[#   4]+0.210*[#   5]+0.210*[#  13]+0.210*[#  14]+0.078*[#   1]
          +0.078*[#  10]
    |psi|^2 = 1.000
==== e(   3) =   -24.14808 eV ==== 
     psi = 0.346*[#   1]+0.346*[#  10]+0.076*[#   4]+0.076*[#   5]+0.076*[#  13]
          +0.076*[#  14]+0.001*[#   6]+0.001*[#  15]
    |psi|^2 = 1.000
==== e(   4) =   -24.05171 eV ==== 
     psi = 0.250*[#   2]+0.250*[#   3]+0.250*[#  11]+0.250*[#  12]
    |psi|^2 = 1.000
==== e(   5) =   -23.98524 eV ==== 
     psi = 0.250*[#   2]+0.250*[#   3]+0.250*[#  11]+0.250*[#  12]
    |psi|^2 = 1.000
==== e(   6) =   -23.84784 eV ==== 
     psi = 0.250*[#   2]+0.250*[#   3]+0.250*[#  11]+0.250*[#  12]
    |psi|^2 = 1.000
==== e(   7) =   -23.77744 eV ==== 
     psi = 0.250*[#   2]+0.250*[#   3]+0.250*[#  11]+0.250*[#  12]
    |psi|^2 = 1.000
==== e(   8) =   -23.76986 eV ==== 
     psi = 0.362*[#   1]+0.362*[#  10]+0.069*[#   4]+0.069*[#   5]+0.069*[#  13]
          +0.069*[#  14]
    |psi|^2 = 1.000
==== e(   9) =   -23.76129 eV ==== 
     psi = 0.181*[#   4]+0.181*[#   5]+0.181*[#  13]+0.181*[#  14]+0.137*[#   1]
          +0.137*[#  10]
    |psi|^2 = 1.000
==== e(  10) =   -23.65887 eV ==== 
     psi = 0.220*[#   4]+0.220*[#   5]+0.220*[#  13]+0.220*[#  14]+0.059*[#   1]
          +0.059*[#  10]
    |psi|^2 = 1.000
==== e(  11) =   -11.34734 eV ==== 
     psi = 0.404*[#   6]+0.404*[#  15]+0.046*[#   8]+0.046*[#   9]+0.046*[#  17]
          +0.046*[#  18]
    |psi|^2 = 0.996
==== e(  12) =    -8.09140 eV ==== 
     psi = 0.293*[#   6]+0.293*[#  15]+0.102*[#   8]+0.102*[#   9]+0.102*[#  17]
          +0.102*[#  18]
    |psi|^2 = 0.998
==== e(  13) =    -5.10050 eV ==== 
     psi = 0.245*[#   8]+0.245*[#   9]+0.245*[#  17]+0.245*[#  18]+0.007*[#   6]
          +0.007*[#  15]
    |psi|^2 = 0.997
==== e(  14) =    -3.38484 eV ==== 
     psi = 0.495*[#   7]+0.495*[#  16]
    |psi|^2 = 0.990
==== e(  15) =    -0.34119 eV ==== 
     psi = 0.474*[#   7]+0.474*[#  16]
    |psi|^2 = 0.949
==== e(  16) =    -0.26051 eV ==== 
     psi = 0.177*[#   6]+0.177*[#  15]+0.149*[#   8]+0.149*[#   9]+0.149*[#  17]
          +0.149*[#  18]
    |psi|^2 = 0.952

 k =   0.4166666667  0.0000000000  0.0000000000
==== e(   1) =   -24.33004 eV ==== 
     psi = 0.242*[#   4]+0.242*[#   5]+0.242*[#  13]+0.242*[#  14]+0.014*[#   1]
          +0.014*[#  10]
    |psi|^2 = 1.000
==== e(   2) =   -24.21552 eV ==== 
     psi = 0.207*[#   4]+0.207*[#   5]+0.207*[#  13]+0.207*[#  14]+0.084*[#   1]
          +0.084*[#  10]
    |psi|^2 = 1.000
==== e(   3) =   -24.14878 eV ==== 
     psi = 0.339*[#   1]+0.339*[#  10]+0.079*[#   4]+0.079*[#   5]+0.079*[#  13]
          +0.079*[#  14]+0.001*[#   6]+0.001*[#  15]
    |psi|^2 = 1.000
==== e(   4) =   -24.05291 eV ==== 
     psi = 0.250*[#   2]+0.250*[#   3]+0.250*[#  11]+0.250*[#  12]
    |psi|^2 = 1.000
==== e(   5) =   -23.98154 eV ==== 
     psi = 0.250*[#   2]+0.250*[#   3]+0.250*[#  11]+0.250*[#  12]
    |psi|^2 = 1.000
==== e(   6) =   -23.85173 eV ==== 
     psi = 0.250*[#   2]+0.250*[#   3]+0.250*[#  11]+0.250*[#  12]
    |psi|^2 = 1.000
==== e(   7) =   -23.77629 eV ==== 
     psi = 0.250*[#   2]+0.250*[#   3]+0.250*[#  11]+0.250*[#  12]
    |psi|^2 = 1.000
==== e(   8) =   -23.76955 eV ==== 
     psi = 0.366*[#   1]+0.366*[#  10]+0.066*[#   4]+0.066*[#   5]+0.066*[#  13]
          +0.066*[#  14]
    |psi|^2 = 1.000
==== e(   9) =   -23.75872 eV ==== 
     psi = 0.177*[#   4]+0.177*[#   5]+0.177*[#  13]+0.177*[#  14]+0.145*[#   1]
          +0.145*[#  10]
    |psi|^2 = 1.000
==== e(  10) =   -23.65135 eV ==== 
     psi = 0.225*[#   4]+0.225*[#   5]+0.225*[#  13]+0.225*[#  14]+0.049*[#   1]
          +0.049*[#  10]
    |psi|^2 = 1.000
==== e(  11) =   -11.26712 eV ==== 
     psi = 0.400*[#   6]+0.400*[#  15]+0.048*[#   8]+0.048*[#   9]+0.048*[#  17]
          +0.048*[#  18]
    |psi|^2 = 0.996
==== e(  12) =    -8.23716 eV ==== 
     psi = 0.296*[#   6]+0.296*[#  15]+0.101*[#   8]+0.101*[#   9]+0.101*[#  17]
          +0.101*[#  18]
    |psi|^2 = 0.998
==== e(  13) =    -5.18872 eV ==== 
     psi = 0.245*[#   8]+0.245*[#   9]+0.245*[#  17]+0.245*[#  18]+0.007*[#   6]
          +0.007*[#  15]
    |psi|^2 = 0.997
==== e(  14) =    -3.30516 eV ==== 
     psi = 0.494*[#   7]+0.494*[#  16]
    |psi|^2 = 0.989
==== e(  15) =    -0.46724 eV ==== 
     psi = 0.475*[#   7]+0.475*[#  16]
    |psi|^2 = 0.951
==== e(  16) =    -0.15187 eV ==== 
     psi = 0.175*[#   6]+0.175*[#  15]+0.149*[#   8]+0.149*[#   9]+0.149*[#  17]
          +0.149*[#  18]
    |psi|^2 = 0.949

 k =   0.4333333333  0.0000000000  0.0000000000
==== e(   1) =   -24.33708 eV ==== 
     psi = 0.243*[#   4]+0.243*[#   5]+0.243*[#  13]+0.243*[#  14]+0.013*[#   1]
          +0.013*[#  10]
    |psi|^2 = 1.000
==== e(   2) =   -24.21563 eV ==== 
     psi = 0.204*[#   4]+0.204*[#   5]+0.204*[#  13]+0.204*[#  14]+0.090*[#   1]
          +0.090*[#  10]
    |psi|^2 = 1.000
==== e(   3) =   -24.14961 eV ==== 
     psi = 0.333*[#   1]+0.333*[#  10]+0.083*[#   4]+0.083*[#   5]+0.083*[#  13]
          +0.083*[#  14]+0.001*[#   6]+0.001*[#  15]
    |psi|^2 = 1.000
==== e(   4) =   -24.05408 eV ==== 
     psi = 0.250*[#   2]+0.250*[#   3]+0.250*[#  11]+0.250*[#  12]
    |psi|^2 = 1.000
==== e(   5) =   -23.97774 eV ==== 
     psi = 0.250*[#   2]+0.250*[#   3]+0.250*[#  11]+0.250*[#  12]
    |psi|^2 = 1.000
==== e(   6) =   -23.85571 eV ==== 
     psi = 0.250*[#   2]+0.250*[#   3]+0.250*[#  11]+0.250*[#  12]
    |psi|^2 = 1.000
==== e(   7) =   -23.77518 eV ==== 
     psi = 0.250*[#   2]+0.250*[#   3]+0.250*[#  11]+0.250*[#  12]
    |psi|^2 = 1.000
==== e(   8) =   -23.76931 eV ==== 
     psi = 0.369*[#   1]+0.369*[#  10]+0.065*[#   4]+0.065*[#   5]+0.065*[#  13]
          +0.065*[#  14]
    |psi|^2 = 1.000
==== e(   9) =   -23.75653 eV ==== 
     psi = 0.173*[#   4]+0.173*[#   5]+0.173*[#  13]+0.173*[#  14]+0.154*[#   1]
          +0.154*[#  10]
    |psi|^2 = 1.000
==== e(  10) =   -23.64413 eV ==== 
     psi = 0.229*[#   4]+0.229*[#   5]+0.229*[#  13]+0.229*[#  14]+0.040*[#   1]
          +0.040*[#  10]
    |psi|^2 = 1.000
==== e(  11) =   -11.18457 eV ==== 
     psi = 0.396*[#   6]+0.396*[#  15]+0.050*[#   8]+0.050*[#   9]+0.050*[#  17]
          +0.050*[#  18]
    |psi|^2 = 0.996
==== e(  12) =    -8.37896 eV ==== 
     psi = 0.299*[#   6]+0.299*[#  15]+0.099*[#   8]+0.099*[#   9]+0.099*[#  17]
          +0.099*[#  18]
    |psi|^2 = 0.998
==== e(  13) =    -5.27428 eV ==== 
     psi = 0.245*[#   8]+0.245*[#   9]+0.245*[#  17]+0.245*[#  18]+0.007*[#   6]
          +0.007*[#  15]
    |psi|^2 = 0.997
==== e(  14) =    -3.22341 eV ==== 
     psi = 0.494*[#   7]+0.494*[#  16]
    |psi|^2 = 0.989
==== e(  15) =    -0.59094 eV ==== 
     psi = 0.476*[#   7]+0.476*[#  16]
    |psi|^2 = 0.953
==== e(  16) =    -0.04155 eV ==== 
     psi = 0.173*[#   6]+0.173*[#  15]+0.150*[#   8]+0.150*[#   9]+0.150*[#  17]
          +0.150*[#  18]
    |psi|^2 = 0.946

 k =   0.4500000000  0.0000000000  0.0000000000
==== e(   1) =   -24.34370 eV ==== 
     psi = 0.244*[#   4]+0.244*[#   5]+0.244*[#  13]+0.244*[#  14]+0.011*[#   1]
          +0.011*[#  10]
    |psi|^2 = 1.000
==== e(   2) =   -24.21534 eV ==== 
     psi = 0.201*[#   4]+0.201*[#   5]+0.201*[#  13]+0.201*[#  14]+0.096*[#   1]
          +0.096*[#  10]
    |psi|^2 = 1.000
==== e(   3) =   -24.15059 eV ==== 
     psi = 0.326*[#   1]+0.326*[#  10]+0.086*[#   4]+0.086*[#   5]+0.086*[#  13]
          +0.086*[#  14]+0.001*[#   6]+0.001*[#  15]
    |psi|^2 = 1.000
==== e(   4) =   -24.05521 eV ==== 
     psi = 0.250*[#   2]+0.250*[#   3]+0.250*[#  11]+0.250*[#  12]
    |psi|^2 = 1.000
==== e(   5) =   -23.97383 eV ==== 
     psi = 0.250*[#   2]+0.250*[#   3]+0.250*[#  11]+0.250*[#  12]
    |psi|^2 = 1.000
==== e(   6) =   -23.85978 eV ==== 
     psi = 0.250*[#   2]+0.250*[#   3]+0.250*[#  11]+0.250*[#  12]
    |psi|^2 = 1.000
==== e(   7) =   -23.77411 eV ==== 
     psi = 0.250*[#   2]+0.250*[#   3]+0.250*[#  11]+0.250*[#  12]
    |psi|^2 = 1.000
==== e(   8) =   -23.76911 eV ==== 
     psi = 0.370*[#   1]+0.370*[#  10]+0.065*[#   4]+0.065*[#   5]+0.065*[#  13]
          +0.065*[#  14]
    |psi|^2 = 1.000
==== e(   9) =   -23.75474 eV ==== 
     psi = 0.168*[#   4]+0.168*[#   5]+0.168*[#  13]+0.168*[#  14]+0.162*[#   1]
          +0.162*[#  10]
    |psi|^2 = 1.000
==== e(  10) =   -23.63725 eV ==== 
     psi = 0.233*[#   4]+0.233*[#   5]+0.233*[#  13]+0.233*[#  14]+0.033*[#   1]
          +0.033*[#  10]
    |psi|^2 = 1.000
==== e(  11) =   -11.09987 eV ==== 
     psi = 0.391*[#   6]+0.391*[#  15]+0.052*[#   8]+0.052*[#   9]+0.052*[#  17]
          +0.052*[#  18]
    |psi|^2 = 0.996
==== e(  12) =    -8.51675 eV ==== 
     psi = 0.302*[#   6]+0.302*[#  15]+0.098*[#   8]+0.098*[#   9]+0.098*[#  17]
          +0.098*[#  18]
    |psi|^2 = 0.998
==== e(  13) =    -5.35680 eV ==== 
     psi = 0.245*[#   8]+0.245*[#   9]+0.245*[#  17]+0.245*[#  18]+0.007*[#   6]
          +0.007*[#  15]
    |psi|^2 = 0.997
==== e(  14) =    -3.13979 eV ==== 
     psi = 0.494*[#   7]+0.494*[#  16]
    |psi|^2 = 0.988
==== e(  15) =    -0.71215 eV ==== 
     psi = 0.477*[#   7]+0.477*[#  16]
    |psi|^2 = 0.956
==== e(  16) =     0.07069 eV ==== 
     psi = 0.171*[#   6]+0.171*[#  15]+0.150*[#   8]+0.150*[#   9]+0.150*[#  17]
          +0.150*[#  18]
    |psi|^2 = 0.943

 k =   0.4666666667  0.0000000000  0.0000000000
==== e(   1) =   -24.34990 eV ==== 
     psi = 0.245*[#   4]+0.245*[#   5]+0.245*[#  13]+0.245*[#  14]+0.009*[#   1]
          +0.009*[#  10]
    |psi|^2 = 1.000
==== e(   2) =   -24.21466 eV ==== 
     psi = 0.198*[#   4]+0.198*[#   5]+0.198*[#  13]+0.198*[#  14]+0.103*[#   1]
          +0.103*[#  10]
    |psi|^2 = 1.000
==== e(   3) =   -24.15173 eV ==== 
     psi = 0.318*[#   1]+0.318*[#  10]+0.090*[#   4]+0.090*[#   5]+0.090*[#  13]
          +0.090*[#  14]+0.001*[#   6]+0.001*[#  15]
    |psi|^2 = 1.000
==== e(   4) =   -24.05629 eV ==== 
     psi = 0.250*[#   2]+0.250*[#   3]+0.250*[#  11]+0.250*[#  12]
    |psi|^2 = 1.000
==== e(   5) =   -23.96983 eV ==== 
     psi = 0.250*[#   2]+0.250*[#   3]+0.250*[#  11]+0.250*[#  12]
    |psi|^2 = 1.000
==== e(   6) =   -23.86394 eV ==== 
     psi = 0.250*[#   2]+0.250*[#   3]+0.250*[#  11]+0.250*[#  12]
    |psi|^2 = 1.000
==== e(   7) =   -23.77309 eV ==== 
     psi = 0.250*[#   2]+0.250*[#   3]+0.250*[#  11]+0.250*[#  12]
    |psi|^2 = 1.000
==== e(   8) =   -23.76893 eV ==== 
     psi = 0.369*[#   1]+0.369*[#  10]+0.065*[#   4]+0.065*[#   5]+0.065*[#  13]
          +0.065*[#  14]
    |psi|^2 = 1.000
==== e(   9) =   -23.75333 eV ==== 
     psi = 0.171*[#   1]+0.171*[#  10]+0.164*[#   4]+0.164*[#   5]+0.164*[#  13]
          +0.164*[#  14]
    |psi|^2 = 1.000
==== e(  10) =   -23.63074 eV ==== 
     psi = 0.236*[#   4]+0.236*[#   5]+0.236*[#  13]+0.236*[#  14]+0.027*[#   1]
          +0.027*[#  10]
    |psi|^2 = 1.000
==== e(  11) =   -11.01321 eV ==== 
     psi = 0.387*[#   6]+0.387*[#  15]+0.055*[#   8]+0.055*[#   9]+0.055*[#  17]
          +0.055*[#  18]
    |psi|^2 = 0.996
==== e(  12) =    -8.65051 eV ==== 
     psi = 0.305*[#   6]+0.305*[#  15]+0.096*[#   8]+0.096*[#   9]+0.096*[#  17]
          +0.096*[#  18]
    |psi|^2 = 0.998
==== e(  13) =    -5.43586 eV ==== 
     psi = 0.246*[#   8]+0.246*[#   9]+0.246*[#  17]+0.246*[#  18]+0.007*[#   6]
          +0.007*[#  15]
    |psi|^2 = 0.997
==== e(  14) =    -3.05451 eV ==== 
     psi = 0.493*[#   7]+0.493*[#  16]
    |psi|^2 = 0.988
==== e(  15) =    -0.83073 eV ==== 
     psi = 0.479*[#   7]+0.479*[#  16]
    |psi|^2 = 0.958
==== e(  16) =     0.18505 eV ==== 
     psi = 0.169*[#   6]+0.169*[#  15]+0.150*[#   8]+0.150*[#   9]+0.150*[#  17]
          +0.150*[#  18]
    |psi|^2 = 0.940

 k =   0.4833333333  0.0000000000  0.0000000000
==== e(   1) =   -24.35563 eV ==== 
     psi = 0.246*[#   4]+0.246*[#   5]+0.246*[#  13]+0.246*[#  14]+0.008*[#   1]
          +0.008*[#  10]
    |psi|^2 = 1.000
==== e(   2) =   -24.21359 eV ==== 
     psi = 0.194*[#   4]+0.194*[#   5]+0.194*[#  13]+0.194*[#  14]+0.110*[#   1]
          +0.110*[#  10]
    |psi|^2 = 1.000
==== e(   3) =   -24.15303 eV ==== 
     psi = 0.311*[#   1]+0.311*[#  10]+0.094*[#   4]+0.094*[#   5]+0.094*[#  13]
          +0.094*[#  14]+0.001*[#   6]+0.001*[#  15]
    |psi|^2 = 1.000
==== e(   4) =   -24.05732 eV ==== 
     psi = 0.250*[#   2]+0.250*[#   3]+0.250*[#  11]+0.250*[#  12]
    |psi|^2 = 1.000
==== e(   5) =   -23.96574 eV ==== 
     psi = 0.250*[#   2]+0.250*[#   3]+0.250*[#  11]+0.250*[#  12]
    |psi|^2 = 1.000
==== e(   6) =   -23.86817 eV ==== 
     psi = 0.250*[#   2]+0.250*[#   3]+0.250*[#  11]+0.250*[#  12]
    |psi|^2 = 1.000
==== e(   7) =   -23.77212 eV ==== 
     psi = 0.250*[#   2]+0.250*[#   3]+0.250*[#  11]+0.250*[#  12]
    |psi|^2 = 1.000
==== e(   8) =   -23.76873 eV ==== 
     psi = 0.367*[#   1]+0.367*[#  10]+0.066*[#   4]+0.066*[#   5]+0.066*[#  13]
          +0.066*[#  14]
    |psi|^2 = 1.000
==== e(   9) =   -23.75228 eV ==== 
     psi = 0.181*[#   1]+0.181*[#  10]+0.159*[#   4]+0.159*[#   5]+0.159*[#  13]
          +0.159*[#  14]
    |psi|^2 = 1.000
==== e(  10) =   -23.62466 eV ==== 
     psi = 0.239*[#   4]+0.239*[#   5]+0.239*[#  13]+0.239*[#  14]+0.022*[#   1]
          +0.022*[#  10]
    |psi|^2 = 1.000
==== e(  11) =   -10.92483 eV ==== 
     psi = 0.383*[#   6]+0.383*[#  15]+0.056*[#   8]+0.056*[#   9]+0.056*[#  17]
          +0.056*[#  18]
    |psi|^2 = 0.996
==== e(  12) =    -8.78021 eV ==== 
     psi = 0.308*[#   6]+0.308*[#  15]+0.095*[#   8]+0.095*[#   9]+0.095*[#  17]
          +0.095*[#  18]
    |psi|^2 = 0.997
==== e(  13) =    -5.51109 eV ==== 
     psi = 0.246*[#   8]+0.246*[#   9]+0.246*[#  17]+0.246*[#  18]+0.006*[#   6]
          +0.006*[#  15]
    |psi|^2 = 0.997
==== e(  14) =    -2.96781 eV ==== 
     psi = 0.493*[#   7]+0.493*[#  16]
    |psi|^2 = 0.987
==== e(  15) =    -0.94655 eV ==== 
     psi = 0.480*[#   7]+0.480*[#  16]
    |psi|^2 = 0.961
==== e(  16) =     0.30170 eV ==== 
     psi = 0.167*[#   6]+0.167*[#  15]+0.150*[#   8]+0.150*[#   9]+0.150*[#  17]
          +0.150*[#  18]
    |psi|^2 = 0.937

 k =   0.5000000000  0.0000000000  0.0000000000
==== e(   1) =   -24.36092 eV ==== 
     psi = 0.246*[#   4]+0.246*[#   5]+0.246*[#  13]+0.246*[#  14]+0.006*[#   1]
          +0.006*[#  10]
    |psi|^2 = 1.000
==== e(   2) =   -24.21215 eV ==== 
     psi = 0.191*[#   4]+0.191*[#   5]+0.191*[#  13]+0.191*[#  14]+0.117*[#   1]
          +0.117*[#  10]
    |psi|^2 = 1.000
==== e(   3) =   -24.15453 eV ==== 
     psi = 0.302*[#   1]+0.302*[#  10]+0.098*[#   4]+0.098*[#   5]+0.098*[#  13]
          +0.098*[#  14]+0.001*[#   6]+0.001*[#  15]
    |psi|^2 = 1.000
==== e(   4) =   -24.05829 eV ==== 
     psi = 0.250*[#   2]+0.250*[#   3]+0.250*[#  11]+0.250*[#  12]
    |psi|^2 = 1.000
[...]
          +0.109*[#  18]
    |psi|^2 = 0.996
==== e(  13) =    -4.27273 eV ==== 
     psi = 0.498*[#   7]+0.498*[#  16]
    |psi|^2 = 0.996
==== e(  14) =    -3.69269 eV ==== 
     psi = 0.248*[#   8]+0.248*[#   9]+0.248*[#  17]+0.248*[#  18]+0.001*[#   4]
          +0.001*[#   5]+0.001*[#  13]+0.001*[#  14]
    |psi|^2 = 0.997
==== e(  15) =    -2.18051 eV ==== 
     psi = 0.211*[#   6]+0.211*[#  15]+0.140*[#   8]+0.140*[#   9]+0.140*[#  17]
          +0.140*[#  18]
    |psi|^2 = 0.983
==== e(  16) =     0.51785 eV ==== 
     psi = 0.209*[#   8]+0.209*[#   9]+0.209*[#  17]+0.209*[#  18]+0.019*[#   6]
          +0.019*[#  15]+0.001*[#   4]+0.001*[#   5]+0.001*[#  13]+0.001*[#  14]
          
    |psi|^2 = 0.878

 k =   0.1000000000  0.0577350269  0.0000000000
==== e(   1) =   -24.16583 eV ==== 
     psi = 0.198*[#   1]+0.198*[#  10]+0.150*[#   4]+0.150*[#   5]+0.150*[#  13]
          +0.150*[#  14]
    |psi|^2 = 1.000
==== e(   2) =   -24.16259 eV ==== 
     psi = 0.249*[#   4]+0.249*[#   5]+0.249*[#  13]+0.249*[#  14]+0.001*[#   8]
          +0.001*[#   9]+0.001*[#  17]+0.001*[#  18]
    |psi|^2 = 1.000
==== e(   3) =   -24.14424 eV ==== 
     psi = 0.289*[#   1]+0.289*[#  10]+0.104*[#   4]+0.104*[#   5]+0.104*[#  13]
          +0.104*[#  14]
    |psi|^2 = 1.000
==== e(   4) =   -24.03331 eV ==== 
     psi = 0.250*[#   2]+0.250*[#   3]+0.250*[#  11]+0.250*[#  12]
    |psi|^2 = 1.000
==== e(   5) =   -24.02722 eV ==== 
     psi = 0.250*[#   2]+0.250*[#   3]+0.250*[#  11]+0.250*[#  12]
    |psi|^2 = 1.000
==== e(   6) =   -23.85071 eV ==== 
     psi = 0.236*[#   4]+0.236*[#   5]+0.236*[#  13]+0.236*[#  14]+0.026*[#   1]
          +0.026*[#  10]+0.001*[#   8]+0.001*[#   9]+0.001*[#  17]+0.001*[#  18]
          
    |psi|^2 = 1.000
==== e(   7) =   -23.84628 eV ==== 
     psi = 0.249*[#   4]+0.249*[#   5]+0.249*[#  13]+0.249*[#  14]+0.001*[#   8]
          +0.001*[#   9]+0.001*[#  17]+0.001*[#  18]
    |psi|^2 = 1.000
==== e(   8) =   -23.80199 eV ==== 
     psi = 0.250*[#   2]+0.250*[#   3]+0.250*[#  11]+0.250*[#  12]
    |psi|^2 = 1.000
==== e(   9) =   -23.79533 eV ==== 
     psi = 0.250*[#   2]+0.250*[#   3]+0.250*[#  11]+0.250*[#  12]
    |psi|^2 = 1.000
==== e(  10) =   -23.73713 eV ==== 
     psi = 0.485*[#   1]+0.485*[#  10]+0.007*[#   4]+0.007*[#   5]+0.007*[#  13]
          +0.007*[#  14]
    |psi|^2 = 1.000
==== e(  11) =   -12.25447 eV ==== 
     psi = 0.484*[#   6]+0.484*[#  15]+0.006*[#   8]+0.006*[#   9]+0.006*[#  17]
          +0.006*[#  18]+0.002*[#   1]+0.002*[#  10]
    |psi|^2 = 0.996
==== e(  12) =    -5.06805 eV ==== 
     psi = 0.282*[#   6]+0.282*[#  15]+0.107*[#   8]+0.107*[#   9]+0.107*[#  17]
          +0.107*[#  18]
    |psi|^2 = 0.996
==== e(  13) =    -4.30447 eV ==== 
     psi = 0.498*[#   7]+0.498*[#  16]
    |psi|^2 = 0.997
==== e(  14) =    -3.63570 eV ==== 
     psi = 0.248*[#   8]+0.248*[#   9]+0.248*[#  17]+0.248*[#  18]+0.001*[#   4]
          +0.001*[#   5]+0.001*[#  13]+0.001*[#  14]
    |psi|^2 = 0.997
==== e(  15) =    -2.34984 eV ==== 
     psi = 0.209*[#   6]+0.209*[#  15]+0.141*[#   8]+0.141*[#   9]+0.141*[#  17]
          +0.141*[#  18]
    |psi|^2 = 0.985
==== e(  16) =     0.50178 eV ==== 
     psi = 0.215*[#   8]+0.215*[#   9]+0.215*[#  17]+0.215*[#  18]+0.013*[#   6]
          +0.013*[#  15]+0.001*[#   4]+0.001*[#   5]+0.001*[#  13]+0.001*[#  14]
          
    |psi|^2 = 0.890

 k =   0.0833333333  0.0481125224  0.0000000000
==== e(   1) =   -24.15969 eV ==== 
     psi = 0.252*[#   1]+0.252*[#  10]+0.123*[#   4]+0.123*[#   5]+0.123*[#  13]
          +0.123*[#  14]+0.001*[#   6]+0.001*[#  15]
    |psi|^2 = 1.000
==== e(   2) =   -24.15585 eV ==== 
     psi = 0.249*[#   4]+0.249*[#   5]+0.249*[#  13]+0.249*[#  14]+0.001*[#   8]
          +0.001*[#   9]+0.001*[#  17]+0.001*[#  18]
    |psi|^2 = 1.000
==== e(   3) =   -24.14430 eV ==== 
     psi = 0.237*[#   1]+0.237*[#  10]+0.130*[#   4]+0.130*[#   5]+0.130*[#  13]
          +0.130*[#  14]
    |psi|^2 = 1.000
==== e(   4) =   -24.03267 eV ==== 
     psi = 0.250*[#   2]+0.250*[#   3]+0.250*[#  11]+0.250*[#  12]
    |psi|^2 = 1.000
==== e(   5) =   -24.02840 eV ==== 
     psi = 0.250*[#   2]+0.250*[#   3]+0.250*[#  11]+0.250*[#  12]
    |psi|^2 = 1.000
==== e(   6) =   -23.85687 eV ==== 
     psi = 0.240*[#   4]+0.240*[#   5]+0.240*[#  13]+0.240*[#  14]+0.018*[#   1]
          +0.018*[#  10]+0.001*[#   8]+0.001*[#   9]+0.001*[#  17]+0.001*[#  18]
          
    |psi|^2 = 1.000
==== e(   7) =   -23.85380 eV ==== 
     psi = 0.249*[#   4]+0.249*[#   5]+0.249*[#  13]+0.249*[#  14]+0.001*[#   8]
          +0.001*[#   9]+0.001*[#  17]+0.001*[#  18]
    |psi|^2 = 1.000
==== e(   8) =   -23.80062 eV ==== 
     psi = 0.250*[#   2]+0.250*[#   3]+0.250*[#  11]+0.250*[#  12]
    |psi|^2 = 1.000
==== e(   9) =   -23.79597 eV ==== 
     psi = 0.250*[#   2]+0.250*[#   3]+0.250*[#  11]+0.250*[#  12]
    |psi|^2 = 1.000
==== e(  10) =   -23.73754 eV ==== 
     psi = 0.490*[#   1]+0.490*[#  10]+0.005*[#   4]+0.005*[#   5]+0.005*[#  13]
          +0.005*[#  14]
    |psi|^2 = 1.000
==== e(  11) =   -12.28049 eV ==== 
     psi = 0.487*[#   6]+0.487*[#  15]+0.004*[#   8]+0.004*[#   9]+0.004*[#  17]
          +0.004*[#  18]+0.002*[#   1]+0.002*[#  10]
    |psi|^2 = 0.996
==== e(  12) =    -4.83557 eV ==== 
     psi = 0.288*[#   6]+0.288*[#  15]+0.104*[#   8]+0.104*[#   9]+0.104*[#  17]
          +0.104*[#  18]
    |psi|^2 = 0.995
==== e(  13) =    -4.33141 eV ==== 
     psi = 0.498*[#   7]+0.498*[#  16]
    |psi|^2 = 0.997
==== e(  14) =    -3.58445 eV ==== 
     psi = 0.248*[#   8]+0.248*[#   9]+0.248*[#  17]+0.248*[#  18]+0.001*[#   4]
          +0.001*[#   5]+0.001*[#  13]+0.001*[#  14]
    |psi|^2 = 0.997
==== e(  15) =    -2.53566 eV ==== 
     psi = 0.205*[#   6]+0.205*[#  15]+0.144*[#   8]+0.144*[#   9]+0.144*[#  17]
          +0.144*[#  18]
    |psi|^2 = 0.987
==== e(  16) =     0.50072 eV ==== 
     psi = 0.220*[#   8]+0.220*[#   9]+0.220*[#  17]+0.220*[#  18]+0.009*[#   6]
          +0.009*[#  15]+0.001*[#   4]+0.001*[#   5]+0.001*[#  13]+0.001*[#  14]
          
    |psi|^2 = 0.901

 k =   0.0666666667  0.0384900179  0.0000000000
==== e(   1) =   -24.15491 eV ==== 
     psi = 0.341*[#   1]+0.341*[#  10]+0.079*[#   4]+0.079*[#   5]+0.079*[#  13]
          +0.079*[#  14]+0.001*[#   6]+0.001*[#  15]
    |psi|^2 = 1.000
==== e(   2) =   -24.14997 eV ==== 
     psi = 0.249*[#   4]+0.249*[#   5]+0.249*[#  13]+0.249*[#  14]+0.001*[#   8]
          +0.001*[#   9]+0.001*[#  17]+0.001*[#  18]
    |psi|^2 = 1.000
==== e(   3) =   -24.14378 eV ==== 
     psi = 0.173*[#   4]+0.173*[#   5]+0.173*[#  13]+0.173*[#  14]+0.152*[#   1]
          +0.152*[#  10]
    |psi|^2 = 1.000
==== e(   4) =   -24.03213 eV ==== 
     psi = 0.250*[#   2]+0.250*[#   3]+0.250*[#  11]+0.250*[#  12]
    |psi|^2 = 1.000
==== e(   5) =   -24.02939 eV ==== 
     psi = 0.250*[#   2]+0.250*[#   3]+0.250*[#  11]+0.250*[#  12]
    |psi|^2 = 1.000
==== e(   6) =   -23.86230 eV ==== 
     psi = 0.243*[#   4]+0.243*[#   5]+0.243*[#  13]+0.243*[#  14]+0.011*[#   1]
          +0.011*[#  10]+0.001*[#   8]+0.001*[#   9]+0.001*[#  17]+0.001*[#  18]
          
    |psi|^2 = 1.000
==== e(   7) =   -23.86034 eV ==== 
     psi = 0.249*[#   4]+0.249*[#   5]+0.249*[#  13]+0.249*[#  14]+0.001*[#   8]
          +0.001*[#   9]+0.001*[#  17]+0.001*[#  18]
    |psi|^2 = 1.000
==== e(   8) =   -23.79950 eV ==== 
     psi = 0.250*[#   2]+0.250*[#   3]+0.250*[#  11]+0.250*[#  12]
    |psi|^2 = 1.000
==== e(   9) =   -23.79650 eV ==== 
     psi = 0.250*[#   2]+0.250*[#   3]+0.250*[#  11]+0.250*[#  12]
    |psi|^2 = 1.000
==== e(  10) =   -23.73782 eV ==== 
     psi = 0.494*[#   1]+0.494*[#  10]+0.003*[#   4]+0.003*[#   5]+0.003*[#  13]
          +0.003*[#  14]
    |psi|^2 = 1.000
==== e(  11) =   -12.30180 eV ==== 
     psi = 0.491*[#   6]+0.491*[#  15]+0.003*[#   8]+0.003*[#   9]+0.003*[#  17]
          +0.003*[#  18]+0.002*[#   1]+0.002*[#  10]
    |psi|^2 = 0.996
==== e(  12) =    -4.60330 eV ==== 
     psi = 0.297*[#   6]+0.297*[#  15]+0.100*[#   8]+0.100*[#   9]+0.100*[#  17]
          +0.100*[#  18]
    |psi|^2 = 0.994
==== e(  13) =    -4.35350 eV ==== 
     psi = 0.498*[#   7]+0.498*[#  16]
    |psi|^2 = 0.997
==== e(  14) =    -3.54023 eV ==== 
     psi = 0.248*[#   8]+0.248*[#   9]+0.248*[#  17]+0.248*[#  18]+0.001*[#   4]
          +0.001*[#   5]+0.001*[#  13]+0.001*[#  14]
    |psi|^2 = 0.997
==== e(  15) =    -2.73396 eV ==== 
     psi = 0.196*[#   6]+0.196*[#  15]+0.148*[#   8]+0.148*[#   9]+0.148*[#  17]
          +0.148*[#  18]
    |psi|^2 = 0.988
==== e(  16) =     0.50944 eV ==== 
     psi = 0.224*[#   8]+0.224*[#   9]+0.224*[#  17]+0.224*[#  18]+0.006*[#   6]
          +0.006*[#  15]+0.001*[#   4]+0.001*[#   5]+0.001*[#  13]+0.001*[#  14]
          
    |psi|^2 = 0.913

 k =   0.0500000000  0.0288675135  0.0000000000
==== e(   1) =   -24.15192 eV ==== 
     psi = 0.438*[#   1]+0.438*[#  10]+0.030*[#   4]+0.030*[#   5]+0.030*[#  13]
          +0.030*[#  14]+0.002*[#   6]+0.002*[#  15]
    |psi|^2 = 1.000
==== e(   2) =   -24.14513 eV ==== 
     psi = 0.249*[#   4]+0.249*[#   5]+0.249*[#  13]+0.249*[#  14]+0.001*[#   8]
          +0.001*[#   9]+0.001*[#  17]+0.001*[#  18]
    |psi|^2 = 1.000
==== e(   3) =   -24.14242 eV ==== 
     psi = 0.220*[#   4]+0.220*[#   5]+0.220*[#  13]+0.220*[#  14]+0.057*[#   1]
          +0.057*[#  10]+0.001*[#   8]+0.001*[#   9]+0.001*[#  17]+0.001*[#  18]
          
    |psi|^2 = 1.000
==== e(   4) =   -24.03171 eV ==== 
     psi = 0.250*[#   2]+0.250*[#   3]+0.250*[#  11]+0.250*[#  12]
    |psi|^2 = 1.000
==== e(   5) =   -24.03016 eV ==== 
     psi = 0.250*[#   2]+0.250*[#   3]+0.250*[#  11]+0.250*[#  12]
    |psi|^2 = 1.000
==== e(   6) =   -23.86680 eV ==== 
     psi = 0.246*[#   4]+0.246*[#   5]+0.246*[#  13]+0.246*[#  14]+0.006*[#   1]
          +0.006*[#  10]+0.001*[#   8]+0.001*[#   9]+0.001*[#  17]+0.001*[#  18]
          
    |psi|^2 = 1.000
==== e(   7) =   -23.86569 eV ==== 
     psi = 0.249*[#   4]+0.249*[#   5]+0.249*[#  13]+0.249*[#  14]+0.001*[#   8]
          +0.001*[#   9]+0.001*[#  17]+0.001*[#  18]
    |psi|^2 = 1.000
==== e(   8) =   -23.79862 eV ==== 
     psi = 0.250*[#   2]+0.250*[#   3]+0.250*[#  11]+0.250*[#  12]
    |psi|^2 = 1.000
==== e(   9) =   -23.79692 eV ==== 
     psi = 0.250*[#   2]+0.250*[#   3]+0.250*[#  11]+0.250*[#  12]
    |psi|^2 = 1.000
==== e(  10) =   -23.73801 eV ==== 
     psi = 0.496*[#   1]+0.496*[#  10]+0.001*[#   4]+0.001*[#   5]+0.001*[#  13]
          +0.001*[#  14]
    |psi|^2 = 1.000
==== e(  11) =   -12.31839 eV ==== 
     psi = 0.493*[#   6]+0.493*[#  15]+0.002*[#   1]+0.002*[#  10]+0.002*[#   8]
          +0.002*[#   9]+0.002*[#  17]+0.002*[#  18]
    |psi|^2 = 0.996
==== e(  12) =    -4.37291 eV ==== 
     psi = 0.311*[#   6]+0.311*[#  15]+0.092*[#   8]+0.092*[#   9]+0.092*[#  17]
          +0.092*[#  18]
    |psi|^2 = 0.993
==== e(  13) =    -4.37071 eV ==== 
     psi = 0.498*[#   7]+0.498*[#  16]
    |psi|^2 = 0.997
==== e(  14) =    -3.50428 eV ==== 
     psi = 0.248*[#   8]+0.248*[#   9]+0.248*[#  17]+0.248*[#  18]+0.001*[#   4]
          +0.001*[#   5]+0.001*[#  13]+0.001*[#  14]
    |psi|^2 = 0.996
==== e(  15) =    -2.94051 eV ==== 
     psi = 0.182*[#   6]+0.182*[#  15]+0.156*[#   8]+0.156*[#   9]+0.156*[#  17]
          +0.156*[#  18]
    |psi|^2 = 0.990
==== e(  16) =     0.52290 eV ==== 
     psi = 0.228*[#   8]+0.228*[#   9]+0.228*[#  17]+0.228*[#  18]+0.003*[#   6]
          +0.003*[#  15]+0.001*[#   4]+0.001*[#   5]+0.001*[#  13]+0.001*[#  14]
          
    |psi|^2 = 0.925

 k =   0.0333333333  0.0192450090  0.0000000000
==== e(   1) =   -24.15052 eV ==== 
     psi = 0.486*[#   1]+0.486*[#  10]+0.006*[#   4]+0.006*[#   5]+0.006*[#  13]
          +0.006*[#  14]+0.002*[#   6]+0.002*[#  15]
    |psi|^2 = 1.000
==== e(   2) =   -24.14151 eV ==== 
     psi = 0.249*[#   4]+0.249*[#   5]+0.249*[#  13]+0.249*[#  14]+0.001*[#   8]
          +0.001*[#   9]+0.001*[#  17]+0.001*[#  18]
    |psi|^2 = 1.000
==== e(   3) =   -24.14055 eV ==== 
     psi = 0.243*[#   4]+0.243*[#   5]+0.243*[#  13]+0.243*[#  14]+0.011*[#   1]
          +0.011*[#  10]+0.001*[#   8]+0.001*[#   9]+0.001*[#  17]+0.001*[#  18]
          
    |psi|^2 = 1.000
==== e(   4) =   -24.03140 eV ==== 
     psi = 0.250*[#   2]+0.250*[#   3]+0.250*[#  11]+0.250*[#  12]
    |psi|^2 = 1.000
==== e(   5) =   -24.03071 eV ==== 
     psi = 0.250*[#   2]+0.250*[#   3]+0.250*[#  11]+0.250*[#  12]
    |psi|^2 = 1.000
==== e(   6) =   -23.87017 eV ==== 
     psi = 0.247*[#   4]+0.247*[#   5]+0.247*[#  13]+0.247*[#  14]+0.003*[#   1]
          +0.003*[#  10]+0.001*[#   8]+0.001*[#   9]+0.001*[#  17]+0.001*[#  18]
          
    |psi|^2 = 1.000
==== e(   7) =   -23.86968 eV ==== 
     psi = 0.249*[#   4]+0.249*[#   5]+0.249*[#  13]+0.249*[#  14]+0.001*[#   8]
          +0.001*[#   9]+0.001*[#  17]+0.001*[#  18]
    |psi|^2 = 1.000
==== e(   8) =   -23.79798 eV ==== 
     psi = 0.250*[#   2]+0.250*[#   3]+0.250*[#  11]+0.250*[#  12]
    |psi|^2 = 1.000
==== e(   9) =   -23.79723 eV ==== 
     psi = 0.250*[#   2]+0.250*[#   3]+0.250*[#  11]+0.250*[#  12]
    |psi|^2 = 1.000
==== e(  10) =   -23.73813 eV ==== 
     psi = 0.498*[#   1]+0.498*[#  10]
    |psi|^2 = 1.000
==== e(  11) =   -12.33025 eV ==== 
     psi = 0.495*[#   6]+0.495*[#  15]+0.002*[#   1]+0.002*[#  10]
    |psi|^2 = 0.996
==== e(  12) =    -4.38302 eV ==== 
     psi = 0.498*[#   7]+0.498*[#  16]
    |psi|^2 = 0.997
==== e(  13) =    -4.14823 eV ==== 
     psi = 0.339*[#   6]+0.339*[#  15]+0.078*[#   8]+0.078*[#   9]+0.078*[#  17]
          +0.078*[#  18]
    |psi|^2 = 0.992
==== e(  14) =    -3.47770 eV ==== 
     psi = 0.248*[#   8]+0.248*[#   9]+0.248*[#  17]+0.248*[#  18]+0.001*[#   4]
          +0.001*[#   5]+0.001*[#  13]+0.001*[#  14]
    |psi|^2 = 0.996
==== e(  15) =    -3.14952 eV ==== 
     psi = 0.170*[#   8]+0.170*[#   9]+0.170*[#  17]+0.170*[#  18]+0.154*[#   6]
          +0.154*[#  15]
    |psi|^2 = 0.992
==== e(  16) =     0.53651 eV ==== 
     psi = 0.232*[#   8]+0.232*[#   9]+0.232*[#  17]+0.232*[#  18]+0.001*[#   6]
          +0.001*[#  15]+0.001*[#   4]+0.001*[#   5]+0.001*[#  13]+0.001*[#  14]
          
    |psi|^2 = 0.936

 k =   0.0166666667  0.0096225045  0.0000000000
==== e(   1) =   -24.15000 eV ==== 
     psi = 0.497*[#   1]+0.497*[#  10]+0.002*[#   6]+0.002*[#  15]
    |psi|^2 = 1.000
==== e(   2) =   -24.13928 eV ==== 
     psi = 0.249*[#   4]+0.249*[#   5]+0.249*[#  13]+0.249*[#  14]+0.001*[#   8]
          +0.001*[#   9]+0.001*[#  17]+0.001*[#  18]
    |psi|^2 = 1.000
==== e(   3) =   -24.13907 eV ==== 
     psi = 0.248*[#   4]+0.248*[#   5]+0.248*[#  13]+0.248*[#  14]+0.001*[#   8]
          +0.001*[#   9]+0.001*[#  17]+0.001*[#  18]
    |psi|^2 = 1.000
==== e(   4) =   -24.03122 eV ==== 
     psi = 0.250*[#   2]+0.250*[#   3]+0.250*[#  11]+0.250*[#  12]
    |psi|^2 = 1.000
==== e(   5) =   -24.03105 eV ==== 
     psi = 0.250*[#   2]+0.250*[#   3]+0.250*[#  11]+0.250*[#  12]
    |psi|^2 = 1.000
==== e(   6) =   -23.87225 eV ==== 
     psi = 0.248*[#   4]+0.248*[#   5]+0.248*[#  13]+0.248*[#  14]+0.001*[#   8]
          +0.001*[#   9]+0.001*[#  17]+0.001*[#  18]
    |psi|^2 = 1.000
==== e(   7) =   -23.87213 eV ==== 
     psi = 0.249*[#   4]+0.249*[#   5]+0.249*[#  13]+0.249*[#  14]+0.001*[#   8]
          +0.001*[#   9]+0.001*[#  17]+0.001*[#  18]
    |psi|^2 = 1.000
==== e(   8) =   -23.79761 eV ==== 
     psi = 0.250*[#   2]+0.250*[#   3]+0.250*[#  11]+0.250*[#  12]
    |psi|^2 = 1.000
==== e(   9) =   -23.79741 eV ==== 
     psi = 0.250*[#   2]+0.250*[#   3]+0.250*[#  11]+0.250*[#  12]
    |psi|^2 = 1.000
==== e(  10) =   -23.73820 eV ==== 
     psi = 0.499*[#   1]+0.499*[#  10]
    |psi|^2 = 1.000
==== e(  11) =   -12.33737 eV ==== 
     psi = 0.496*[#   6]+0.496*[#  15]+0.002*[#   1]+0.002*[#  10]
    |psi|^2 = 0.996
==== e(  12) =    -4.39041 eV ==== 
     psi = 0.498*[#   7]+0.498*[#  16]
    |psi|^2 = 0.997
==== e(  13) =    -3.94259 eV ==== 
     psi = 0.402*[#   6]+0.402*[#  15]+0.046*[#   8]+0.046*[#   9]+0.046*[#  17]
          +0.046*[#  18]
    |psi|^2 = 0.990
==== e(  14) =    -3.46136 eV ==== 
     psi = 0.248*[#   8]+0.248*[#   9]+0.248*[#  17]+0.248*[#  18]+0.001*[#   4]
          +0.001*[#   5]+0.001*[#  13]+0.001*[#  14]
    |psi|^2 = 0.996
==== e(  15) =    -3.34630 eV ==== 
     psi = 0.202*[#   8]+0.202*[#   9]+0.202*[#  17]+0.202*[#  18]+0.092*[#   6]
          +0.092*[#  15]+0.001*[#   4]+0.001*[#   5]+0.001*[#  13]+0.001*[#  14]
          
    |psi|^2 = 0.994
==== e(  16) =     0.54644 eV ==== 
     psi = 0.235*[#   8]+0.235*[#   9]+0.235*[#  17]+0.235*[#  18]+0.001*[#   4]
          +0.001*[#   5]+0.001*[#  13]+0.001*[#  14]
    |psi|^2 = 0.944

 k =   0.0000000000  0.0000000000  0.0000000000
==== e(   1) =   -24.14986 eV ==== 
     psi = 0.498*[#   1]+0.498*[#  10]+0.002*[#   6]+0.002*[#  15]
    |psi|^2 = 1.000
==== e(   2) =   -24.13852 eV ==== 
     psi = 0.249*[#   4]+0.249*[#   5]+0.249*[#  13]+0.249*[#  14]+0.001*[#   8]
          +0.001*[#   9]+0.001*[#  17]+0.001*[#  18]
    |psi|^2 = 1.000
==== e(   3) =   -24.13852 eV ==== 
     psi = 0.249*[#   4]+0.249*[#   5]+0.249*[#  13]+0.249*[#  14]+0.001*[#   8]
          +0.001*[#   9]+0.001*[#  17]+0.001*[#  18]
    |psi|^2 = 1.000
==== e(   4) =   -24.03115 eV ==== 
     psi = 0.250*[#   2]+0.250*[#   3]+0.250*[#  11]+0.250*[#  12]
    |psi|^2 = 1.000
==== e(   5) =   -24.03115 eV ==== 
     psi = 0.250*[#   2]+0.250*[#   3]+0.250*[#  11]+0.250*[#  12]
    |psi|^2 = 1.000
==== e(   6) =   -23.87296 eV ==== 
     psi = 0.249*[#   4]+0.249*[#   5]+0.249*[#  13]+0.249*[#  14]+0.001*[#   8]
          +0.001*[#   9]+0.001*[#  17]+0.001*[#  18]
    |psi|^2 = 1.000
==== e(   7) =   -23.87296 eV ==== 
     psi = 0.249*[#   4]+0.249*[#   5]+0.249*[#  13]+0.249*[#  14]+0.001*[#   8]
          +0.001*[#   9]+0.001*[#  17]+0.001*[#  18]
    |psi|^2 = 1.000
==== e(   8) =   -23.79747 eV ==== 
     psi = 0.250*[#   2]+0.250*[#   3]+0.250*[#  11]+0.250*[#  12]
    |psi|^2 = 1.000
==== e(   9) =   -23.79747 eV ==== 
     psi = 0.250*[#   2]+0.250*[#   3]+0.250*[#  11]+0.250*[#  12]
    |psi|^2 = 1.000
==== e(  10) =   -23.73821 eV ==== 
     psi = 0.499*[#   1]+0.499*[#  10]
    |psi|^2 = 1.000
==== e(  11) =   -12.33974 eV ==== 
     psi = 0.496*[#   6]+0.496*[#  15]+0.002*[#   1]+0.002*[#  10]
    |psi|^2 = 0.996
==== e(  12) =    -4.39287 eV ==== 
     psi = 0.499*[#   7]+0.499*[#  16]
    |psi|^2 = 0.997
==== e(  13) =    -3.83016 eV ==== 
     psi = 0.493*[#   6]+0.493*[#  15]
    |psi|^2 = 0.988
==== e(  14) =    -3.45586 eV ==== 
     psi = 0.248*[#   8]+0.248*[#   9]+0.248*[#  17]+0.248*[#  18]+0.001*[#   4]
          +0.001*[#   5]+0.001*[#  13]+0.001*[#  14]
    |psi|^2 = 0.996
==== e(  15) =    -3.45586 eV ==== 
     psi = 0.248*[#   8]+0.248*[#   9]+0.248*[#  17]+0.248*[#  18]+0.001*[#   4]
          +0.001*[#   5]+0.001*[#  13]+0.001*[#  14]
    |psi|^2 = 0.996
==== e(  16) =     0.55007 eV ==== 
     psi = 0.235*[#   8]+0.235*[#   9]+0.235*[#  17]+0.235*[#  18]+0.001*[#   4]
          +0.001*[#   5]+0.001*[#  13]+0.001*[#  14]
    |psi|^2 = 0.947

Lowdin Charges: 

     Atom #   1: total charge =  14.0230, s =  1.4941, 
     Atom #   1: total charge =  14.0230, p =  2.5380, pz=  0.8895, px=  0.8242, py=  0.8242, 
     Atom #   1: total charge =  14.0230, d =  9.9909, dz2=  1.9986, dxz=  1.9994, dyz=  1.9994, dx2-y2=  1.9968, dxy=  1.9968, 
     Atom #   2: total charge =  14.0230, s =  1.4941, 
     Atom #   2: total charge =  14.0230, p =  2.5380, pz=  0.8895, px=  0.8242, py=  0.8242, 
     Atom #   2: total charge =  14.0230, d =  9.9909, dz2=  1.9986, dxz=  1.9994, dyz=  1.9994, dx2-y2=  1.9968, dxy=  1.9968, 
     Spilling Parameter:  -0.0016

     PROJWFC      :   1m15.76s CPU   2m 3.56s WALL


   This run was terminated on:  20:42:17  21Jun2024            

=------------------------------------------------------------------------------=
   JOB DONE.
=------------------------------------------------------------------------------=
