
     Program PWSCF v.7.2 starts on 21Jun2024 at 11:33:57 

     This program is part of the open-source Quantum ESPRESSO suite
     for quantum simulation of materials; please cite
         "P. Giannozzi et al., J. Phys.:Condens. Matter 21 395502 (2009);
         "P. Giannozzi et al., J. Phys.:Condens. Matter 29 465901 (2017);
         "P. Giannozzi et al., J. Chem. Phys. 152 154105 (2020);
          URL http://www.quantum-espresso.org", 
     in publications or presentations arising from this work. More details at
     http://www.quantum-espresso.org/quote

     Parallel version (MPI), running on     6 processors

     MPI processes distributed on     1 nodes
     6322 MiB available memory on the printing compute node when the environment starts

     Waiting for input...
     Reading input from standard input

     Current dimensions of program PWSCF are:
     Max number of different atomic species (ntypx) = 10
     Max number of k-points (npk) =  40000
     Max angular momentum in pseudopotentials (lmaxx) =  4

     Atomic positions and unit cell read from directory:
     ../tmp/stanene.save/
     Atomic positions from file used, from input discarded


     R & G space division:  proc/nbgrp/npool/nimage =       6
     Subspace diagonalization in iterative solution of the eigenvalue problem:
     a serial algorithm will be used


     Parallelization info
     --------------------
     sticks:   dense  smooth     PW     G-vecs:    dense   smooth      PW
     Min         431     214     61                75773    26776    4007
     Max         432     215     62                75788    26799    4017
     Sum        2587    1285    367               454685   160699   24069

     Using Slab Decomposition



     bravais-lattice index     =            4
     lattice parameter (alat)  =       8.8439  a.u.
     unit-cell volume          =    2560.0529 (a.u.)^3
     number of atoms/cell      =            2
     number of atomic types    =            1
     number of electrons       =        28.00
     number of Kohn-Sham states=           16
     kinetic-energy cutoff     =      60.0000  Ry
     charge density cutoff     =     480.0000  Ry
     Exchange-correlation= SLA  PW   PSX  PSC
                           (   1   4  10   8   0   0   0)

     celldm(1)=   8.843918  celldm(2)=   0.000000  celldm(3)=   4.273504
     celldm(4)=   0.000000  celldm(5)=   0.000000  celldm(6)=   0.000000

     crystal axes: (cart. coord. in units of alat)
               a(1) = (   1.000000   0.000000   0.000000 )  
               a(2) = (  -0.500000   0.866025   0.000000 )  
               a(3) = (   0.000000   0.000000   4.273504 )  

     reciprocal axes: (cart. coord. in units 2 pi/alat)
               b(1) = (  1.000000  0.577350 -0.000000 )  
               b(2) = (  0.000000  1.154701  0.000000 )  
               b(3) = (  0.000000 -0.000000  0.234000 )  


     PseudoPot. # 1 for Sn read from file:
     ../pseudo/sn_pbesol_v1.4.uspp.F.UPF
     MD5 check sum: 463fec1d5456f1e96ec1bfcad4b7b038
     Pseudo is Ultrasoft + core correction, Zval = 14.0
     Generated by new atomic code, or converted to UPF format
     Using radial grid of  891 points,  6 beta functions with: 
                l(1) =   0
                l(2) =   0
                l(3) =   1
                l(4) =   1
                l(5) =   2
                l(6) =   2
     Q(r) pseudized with  8 coefficients,  rinner =    1.350   1.350   1.350
                                                       1.350   1.350

     atomic species   valence    mass     pseudopotential
        Sn            14.00   118.71000     Sn( 1.00)

     24 Sym. Ops., with inversion, found


                                    s                        frac. trans.

      isym =  1     identity                                     

 cryst.   s( 1) = (     1          0          0      )
                  (     0          1          0      )
                  (     0          0          1      )

 cart.    s( 1) = (  1.0000000  0.0000000  0.0000000 )
                  (  0.0000000  1.0000000  0.0000000 )
                  (  0.0000000  0.0000000  1.0000000 )


      isym =  2     180 deg rotation - cart. axis [0,0,1]        

 cryst.   s( 2) = (    -1          0          0      )
                  (     0         -1          0      )
                  (     0          0          1      )

 cart.    s( 2) = ( -1.0000000  0.0000000  0.0000000 )
                  (  0.0000000 -1.0000000  0.0000000 )
                  (  0.0000000  0.0000000  1.0000000 )


      isym =  3     180 deg rotation - cart. axis [0,1,0]        

 cryst.   s( 3) = (    -1          0          0      )
                  (     1          1          0      )
                  (     0          0         -1      )

 cart.    s( 3) = ( -1.0000000  0.0000000  0.0000000 )
                  (  0.0000000  1.0000000  0.0000000 )
                  (  0.0000000  0.0000000 -1.0000000 )


      isym =  4     180 deg rotation - cart. axis [1,0,0]        

 cryst.   s( 4) = (     1          0          0      )
                  (    -1         -1          0      )
                  (     0          0         -1      )

 cart.    s( 4) = (  1.0000000  0.0000000  0.0000000 )
                  (  0.0000000 -1.0000000  0.0000000 )
                  (  0.0000000  0.0000000 -1.0000000 )


      isym =  5      60 deg rotation - cryst. axis [0,0,1]       

 cryst.   s( 5) = (     1          1          0      )
                  (    -1          0          0      )
                  (     0          0          1      )

 cart.    s( 5) = (  0.5000000 -0.8660254  0.0000000 )
                  (  0.8660254  0.5000000  0.0000000 )
                  (  0.0000000  0.0000000  1.0000000 )


      isym =  6      60 deg rotation - cryst. axis [0,0,-1]      

 cryst.   s( 6) = (     0         -1          0      )
                  (     1          1          0      )
                  (     0          0          1      )

 cart.    s( 6) = (  0.5000000  0.8660254  0.0000000 )
                  ( -0.8660254  0.5000000  0.0000000 )
                  (  0.0000000  0.0000000  1.0000000 )


      isym =  7     120 deg rotation - cryst. axis [0,0,1]       

 cryst.   s( 7) = (     0          1          0      )
                  (    -1         -1          0      )
                  (     0          0          1      )

 cart.    s( 7) = ( -0.5000000 -0.8660254  0.0000000 )
                  (  0.8660254 -0.5000000  0.0000000 )
                  (  0.0000000  0.0000000  1.0000000 )


      isym =  8     120 deg rotation - cryst. axis [0,0,-1]      

 cryst.   s( 8) = (    -1         -1          0      )
                  (     1          0          0      )
                  (     0          0          1      )

 cart.    s( 8) = ( -0.5000000  0.8660254  0.0000000 )
                  ( -0.8660254 -0.5000000  0.0000000 )
                  (  0.0000000  0.0000000  1.0000000 )


      isym =  9     180 deg rotation - cryst. axis [1,-1,0]      

 cryst.   s( 9) = (     0         -1          0      )
                  (    -1          0          0      )
                  (     0          0         -1      )

 cart.    s( 9) = (  0.5000000 -0.8660254  0.0000000 )
                  ( -0.8660254 -0.5000000  0.0000000 )
                  (  0.0000000  0.0000000 -1.0000000 )


      isym = 10     180 deg rotation - cryst. axis [2,1,0]       

 cryst.   s(10) = (     1          1          0      )
                  (     0         -1          0      )
                  (     0          0         -1      )

 cart.    s(10) = (  0.5000000  0.8660254  0.0000000 )
                  (  0.8660254 -0.5000000  0.0000000 )
                  (  0.0000000  0.0000000 -1.0000000 )


      isym = 11     180 deg rotation - cryst. axis [0,1,0]       

 cryst.   s(11) = (    -1         -1          0      )
                  (     0          1          0      )
                  (     0          0         -1      )

 cart.    s(11) = ( -0.5000000 -0.8660254  0.0000000 )
                  ( -0.8660254  0.5000000  0.0000000 )
                  (  0.0000000  0.0000000 -1.0000000 )


      isym = 12     180 deg rotation - cryst. axis [1,1,0]       

 cryst.   s(12) = (     0          1          0      )
                  (     1          0          0      )
                  (     0          0         -1      )

 cart.    s(12) = ( -0.5000000  0.8660254  0.0000000 )
                  (  0.8660254  0.5000000  0.0000000 )
                  (  0.0000000  0.0000000 -1.0000000 )


      isym = 13     inversion                                    

 cryst.   s(13) = (    -1          0          0      )
                  (     0         -1          0      )
                  (     0          0         -1      )

 cart.    s(13) = ( -1.0000000  0.0000000  0.0000000 )
                  (  0.0000000 -1.0000000  0.0000000 )
                  (  0.0000000  0.0000000 -1.0000000 )


      isym = 14     inv. 180 deg rotation - cart. axis [0,0,1]   

 cryst.   s(14) = (     1          0          0      )
                  (     0          1          0      )
                  (     0          0         -1      )

 cart.    s(14) = (  1.0000000  0.0000000  0.0000000 )
                  (  0.0000000  1.0000000  0.0000000 )
                  (  0.0000000  0.0000000 -1.0000000 )


      isym = 15     inv. 180 deg rotation - cart. axis [0,1,0]   

 cryst.   s(15) = (     1          0          0      )
                  (    -1         -1          0      )
                  (     0          0          1      )

 cart.    s(15) = (  1.0000000  0.0000000  0.0000000 )
                  (  0.0000000 -1.0000000  0.0000000 )
                  (  0.0000000  0.0000000  1.0000000 )


      isym = 16     inv. 180 deg rotation - cart. axis [1,0,0]   

 cryst.   s(16) = (    -1          0          0      )
                  (     1          1          0      )
                  (     0          0          1      )

 cart.    s(16) = ( -1.0000000  0.0000000  0.0000000 )
                  (  0.0000000  1.0000000  0.0000000 )
                  (  0.0000000  0.0000000  1.0000000 )


      isym = 17     inv.  60 deg rotation - cryst. axis [0,0,1]  

 cryst.   s(17) = (    -1         -1          0      )
                  (     1          0          0      )
                  (     0          0         -1      )

 cart.    s(17) = ( -0.5000000  0.8660254  0.0000000 )
                  ( -0.8660254 -0.5000000  0.0000000 )
                  (  0.0000000  0.0000000 -1.0000000 )


      isym = 18     inv.  60 deg rotation - cryst. axis [0,0,-1] 

 cryst.   s(18) = (     0          1          0      )
                  (    -1         -1          0      )
                  (     0          0         -1      )

 cart.    s(18) = ( -0.5000000 -0.8660254  0.0000000 )
                  (  0.8660254 -0.5000000  0.0000000 )
                  (  0.0000000  0.0000000 -1.0000000 )


      isym = 19     inv. 120 deg rotation - cryst. axis [0,0,1]  

 cryst.   s(19) = (     0         -1          0      )
                  (     1          1          0      )
                  (     0          0         -1      )

 cart.    s(19) = (  0.5000000  0.8660254  0.0000000 )
                  ( -0.8660254  0.5000000  0.0000000 )
                  (  0.0000000  0.0000000 -1.0000000 )


      isym = 20     inv. 120 deg rotation - cryst. axis [0,0,-1] 

 cryst.   s(20) = (     1          1          0      )
                  (    -1          0          0      )
                  (     0          0         -1      )

 cart.    s(20) = (  0.5000000 -0.8660254  0.0000000 )
                  (  0.8660254  0.5000000  0.0000000 )
                  (  0.0000000  0.0000000 -1.0000000 )


      isym = 21     inv. 180 deg rotation - cryst. axis [1,-1,0] 

 cryst.   s(21) = (     0          1          0      )
                  (     1          0          0      )
                  (     0          0          1      )

 cart.    s(21) = ( -0.5000000  0.8660254  0.0000000 )
                  (  0.8660254  0.5000000  0.0000000 )
                  (  0.0000000  0.0000000  1.0000000 )


      isym = 22     inv. 180 deg rotation - cryst. axis [2,1,0]  

 cryst.   s(22) = (    -1         -1          0      )
                  (     0          1          0      )
                  (     0          0          1      )

 cart.    s(22) = ( -0.5000000 -0.8660254  0.0000000 )
                  ( -0.8660254  0.5000000  0.0000000 )
                  (  0.0000000  0.0000000  1.0000000 )


      isym = 23     inv. 180 deg rotation - cryst. axis [0,1,0]  

 cryst.   s(23) = (     1          1          0      )
                  (     0         -1          0      )
                  (     0          0          1      )

 cart.    s(23) = (  0.5000000  0.8660254  0.0000000 )
                  (  0.8660254 -0.5000000  0.0000000 )
                  (  0.0000000  0.0000000  1.0000000 )


      isym = 24     inv. 180 deg rotation - cryst. axis [1,1,0]  

 cryst.   s(24) = (     0         -1          0      )
                  (    -1          0          0      )
                  (     0          0          1      )

 cart.    s(24) = (  0.5000000 -0.8660254  0.0000000 )
                  ( -0.8660254 -0.5000000  0.0000000 )
                  (  0.0000000  0.0000000  1.0000000 )


     point group D_6h(6/mmm)
     there are 12 classes
     the character table:

       E     2C6   2C3   C2    3C2'  3C2'' i     2S3   2S6   s_h   3s_d  3s_v 
A_1g   1.00  1.00  1.00  1.00  1.00  1.00  1.00  1.00  1.00  1.00  1.00  1.00
A_2g   1.00  1.00  1.00  1.00 -1.00 -1.00  1.00  1.00  1.00  1.00 -1.00 -1.00
B_1g   1.00 -1.00  1.00 -1.00  1.00 -1.00  1.00 -1.00  1.00 -1.00  1.00 -1.00
B_2g   1.00 -1.00  1.00 -1.00 -1.00  1.00  1.00 -1.00  1.00 -1.00 -1.00  1.00
E_1g   2.00  1.00 -1.00 -2.00  0.00  0.00  2.00  1.00 -1.00 -2.00  0.00  0.00
E_2g   2.00 -1.00 -1.00  2.00  0.00  0.00  2.00 -1.00 -1.00  2.00  0.00  0.00
A_1u   1.00  1.00  1.00  1.00  1.00  1.00 -1.00 -1.00 -1.00 -1.00 -1.00 -1.00
A_2u   1.00  1.00  1.00  1.00 -1.00 -1.00 -1.00 -1.00 -1.00 -1.00  1.00  1.00
B_1u   1.00 -1.00  1.00 -1.00  1.00 -1.00 -1.00  1.00 -1.00  1.00 -1.00  1.00
B_2u   1.00 -1.00  1.00 -1.00 -1.00  1.00 -1.00  1.00 -1.00  1.00  1.00 -1.00
E_1u   2.00  1.00 -1.00 -2.00  0.00  0.00 -2.00 -1.00  1.00  2.00  0.00  0.00
E_2u   2.00 -1.00 -1.00  2.00  0.00  0.00 -2.00  1.00  1.00 -2.00  0.00  0.00

     the symmetry operations in each class and the name of the first element:

     E        1
          identity                                               
     2C6      5    6
           60 deg rotation - cryst. axis [0,0,1]                 
     2C3      7    8
          120 deg rotation - cryst. axis [0,0,1]                 
     C2       2
          180 deg rotation - cart. axis [0,0,1]                  
     3C2'     4   12   11
          180 deg rotation - cart. axis [1,0,0]                  
     3C2''    3    9   10
          180 deg rotation - cart. axis [0,1,0]                  
     i       13
          inversion                                              
     2S3     17   18
          inv.  60 deg rotation - cryst. axis [0,0,1]            
     2S6     19   20
          inv. 120 deg rotation - cryst. axis [0,0,1]            
     s_h     14
          inv. 180 deg rotation - cart. axis [0,0,1]             
     3s_d    16   24   23
          inv. 180 deg rotation - cart. axis [1,0,0]             
     3s_v    15   21   22
          inv. 180 deg rotation - cart. axis [0,1,0]             

   Cartesian axes

     site n.     atom                  positions (alat units)
         1           Sn  tau(   1) = (   0.0000000   0.5773503   2.1367521  )
         2           Sn  tau(   2) = (   0.5000000   0.2886751   2.1367521  )

   Crystallographic axes

     site n.     atom                  positions (cryst. coord.)
         1           Sn  tau(   1) = (  0.3333333  0.6666667  0.5000000  )
         2           Sn  tau(   2) = (  0.6666667  0.3333333  0.5000000  )

     number of k points=   217 (tetrahedron method)
                       cart. coord. in units 2pi/alat
        k(    1) = (   0.0000000   0.0000000   0.0000000), wk =   0.0008681
        k(    2) = (   0.0000000   0.0240563   0.0000000), wk =   0.0052083
        k(    3) = (   0.0000000   0.0481125   0.0000000), wk =   0.0052083
        k(    4) = (   0.0000000   0.0721688   0.0000000), wk =   0.0052083
        k(    5) = (   0.0000000   0.0962250   0.0000000), wk =   0.0052083
        k(    6) = (   0.0000000   0.1202813   0.0000000), wk =   0.0052083
        k(    7) = (   0.0000000   0.1443376   0.0000000), wk =   0.0052083
        k(    8) = (   0.0000000   0.1683938   0.0000000), wk =   0.0052083
        k(    9) = (   0.0000000   0.1924501   0.0000000), wk =   0.0052083
        k(   10) = (   0.0000000   0.2165064   0.0000000), wk =   0.0052083
        k(   11) = (   0.0000000   0.2405626   0.0000000), wk =   0.0052083
        k(   12) = (   0.0000000   0.2646189   0.0000000), wk =   0.0052083
        k(   13) = (   0.0000000   0.2886751   0.0000000), wk =   0.0052083
        k(   14) = (   0.0000000   0.3127314   0.0000000), wk =   0.0052083
        k(   15) = (   0.0000000   0.3367877   0.0000000), wk =   0.0052083
        k(   16) = (   0.0000000   0.3608439   0.0000000), wk =   0.0052083
        k(   17) = (   0.0000000   0.3849002   0.0000000), wk =   0.0052083
        k(   18) = (   0.0000000   0.4089564   0.0000000), wk =   0.0052083
        k(   19) = (   0.0000000   0.4330127   0.0000000), wk =   0.0052083
        k(   20) = (   0.0000000   0.4570690   0.0000000), wk =   0.0052083
        k(   21) = (   0.0000000   0.4811252   0.0000000), wk =   0.0052083
        k(   22) = (   0.0000000   0.5051815   0.0000000), wk =   0.0052083
        k(   23) = (   0.0000000   0.5292377   0.0000000), wk =   0.0052083
        k(   24) = (   0.0000000   0.5532940   0.0000000), wk =   0.0052083
        k(   25) = (   0.0000000  -0.5773503   0.0000000), wk =   0.0026042
        k(   26) = (   0.0208333   0.0360844   0.0000000), wk =   0.0052083
        k(   27) = (   0.0208333   0.0601407   0.0000000), wk =   0.0104167
        k(   28) = (   0.0208333   0.0841969   0.0000000), wk =   0.0104167
        k(   29) = (   0.0208333   0.1082532   0.0000000), wk =   0.0104167
        k(   30) = (   0.0208333   0.1323094   0.0000000), wk =   0.0104167
        k(   31) = (   0.0208333   0.1563657   0.0000000), wk =   0.0104167
        k(   32) = (   0.0208333   0.1804220   0.0000000), wk =   0.0104167
        k(   33) = (   0.0208333   0.2044782   0.0000000), wk =   0.0104167
        k(   34) = (   0.0208333   0.2285345   0.0000000), wk =   0.0104167
        k(   35) = (   0.0208333   0.2525907   0.0000000), wk =   0.0104167
        k(   36) = (   0.0208333   0.2766470   0.0000000), wk =   0.0104167
        k(   37) = (   0.0208333   0.3007033   0.0000000), wk =   0.0104167
        k(   38) = (   0.0208333   0.3247595   0.0000000), wk =   0.0104167
        k(   39) = (   0.0208333   0.3488158   0.0000000), wk =   0.0104167
        k(   40) = (   0.0208333   0.3728720   0.0000000), wk =   0.0104167
        k(   41) = (   0.0208333   0.3969283   0.0000000), wk =   0.0104167
        k(   42) = (   0.0208333   0.4209846   0.0000000), wk =   0.0104167
        k(   43) = (   0.0208333   0.4450408   0.0000000), wk =   0.0104167
        k(   44) = (   0.0208333   0.4690971   0.0000000), wk =   0.0104167
        k(   45) = (   0.0208333   0.4931534   0.0000000), wk =   0.0104167
        k(   46) = (   0.0208333   0.5172096   0.0000000), wk =   0.0104167
        k(   47) = (   0.0208333   0.5412659   0.0000000), wk =   0.0104167
        k(   48) = (   0.0208333   0.5653221   0.0000000), wk =   0.0104167
        k(   49) = (   0.0416667   0.0721688   0.0000000), wk =   0.0052083
        k(   50) = (   0.0416667   0.0962250   0.0000000), wk =   0.0104167
        k(   51) = (   0.0416667   0.1202813   0.0000000), wk =   0.0104167
        k(   52) = (   0.0416667   0.1443376   0.0000000), wk =   0.0104167
        k(   53) = (   0.0416667   0.1683938   0.0000000), wk =   0.0104167
        k(   54) = (   0.0416667   0.1924501   0.0000000), wk =   0.0104167
        k(   55) = (   0.0416667   0.2165064   0.0000000), wk =   0.0104167
        k(   56) = (   0.0416667   0.2405626   0.0000000), wk =   0.0104167
        k(   57) = (   0.0416667   0.2646189   0.0000000), wk =   0.0104167
        k(   58) = (   0.0416667   0.2886751   0.0000000), wk =   0.0104167
        k(   59) = (   0.0416667   0.3127314   0.0000000), wk =   0.0104167
        k(   60) = (   0.0416667   0.3367877   0.0000000), wk =   0.0104167
        k(   61) = (   0.0416667   0.3608439   0.0000000), wk =   0.0104167
        k(   62) = (   0.0416667   0.3849002   0.0000000), wk =   0.0104167
        k(   63) = (   0.0416667   0.4089564   0.0000000), wk =   0.0104167
        k(   64) = (   0.0416667   0.4330127   0.0000000), wk =   0.0104167
        k(   65) = (   0.0416667   0.4570690   0.0000000), wk =   0.0104167
        k(   66) = (   0.0416667   0.4811252   0.0000000), wk =   0.0104167
        k(   67) = (   0.0416667   0.5051815   0.0000000), wk =   0.0104167
        k(   68) = (   0.0416667   0.5292377   0.0000000), wk =   0.0104167
        k(   69) = (   0.0416667   0.5532940   0.0000000), wk =   0.0104167
        k(   70) = (   0.0416667   0.5773503   0.0000000), wk =   0.0052083
        k(   71) = (   0.0625000   0.1082532   0.0000000), wk =   0.0052083
        k(   72) = (   0.0625000   0.1323094   0.0000000), wk =   0.0104167
        k(   73) = (   0.0625000   0.1563657   0.0000000), wk =   0.0104167
        k(   74) = (   0.0625000   0.1804220   0.0000000), wk =   0.0104167
        k(   75) = (   0.0625000   0.2044782   0.0000000), wk =   0.0104167
        k(   76) = (   0.0625000   0.2285345   0.0000000), wk =   0.0104167
        k(   77) = (   0.0625000   0.2525907   0.0000000), wk =   0.0104167
        k(   78) = (   0.0625000   0.2766470   0.0000000), wk =   0.0104167
        k(   79) = (   0.0625000   0.3007033   0.0000000), wk =   0.0104167
        k(   80) = (   0.0625000   0.3247595   0.0000000), wk =   0.0104167
        k(   81) = (   0.0625000   0.3488158   0.0000000), wk =   0.0104167
        k(   82) = (   0.0625000   0.3728720   0.0000000), wk =   0.0104167
        k(   83) = (   0.0625000   0.3969283   0.0000000), wk =   0.0104167
        k(   84) = (   0.0625000   0.4209846   0.0000000), wk =   0.0104167
        k(   85) = (   0.0625000   0.4450408   0.0000000), wk =   0.0104167
        k(   86) = (   0.0625000   0.4690971   0.0000000), wk =   0.0104167
        k(   87) = (   0.0625000   0.4931534   0.0000000), wk =   0.0104167
        k(   88) = (   0.0625000   0.5172096   0.0000000), wk =   0.0104167
        k(   89) = (   0.0625000   0.5412659   0.0000000), wk =   0.0104167
        k(   90) = (   0.0625000   0.5653221   0.0000000), wk =   0.0104167
        k(   91) = (   0.0833333   0.1443376   0.0000000), wk =   0.0052083
        k(   92) = (   0.0833333   0.1683938   0.0000000), wk =   0.0104167
        k(   93) = (   0.0833333   0.1924501   0.0000000), wk =   0.0104167
        k(   94) = (   0.0833333   0.2165064   0.0000000), wk =   0.0104167
        k(   95) = (   0.0833333   0.2405626   0.0000000), wk =   0.0104167
        k(   96) = (   0.0833333   0.2646189   0.0000000), wk =   0.0104167
        k(   97) = (   0.0833333   0.2886751   0.0000000), wk =   0.0104167
        k(   98) = (   0.0833333   0.3127314   0.0000000), wk =   0.0104167
        k(   99) = (   0.0833333   0.3367877   0.0000000), wk =   0.0104167
        k(  100) = (   0.0833333   0.3608439   0.0000000), wk =   0.0104167
        k(  101) = (   0.0833333   0.3849002   0.0000000), wk =   0.0104167
        k(  102) = (   0.0833333   0.4089564   0.0000000), wk =   0.0104167
        k(  103) = (   0.0833333   0.4330127   0.0000000), wk =   0.0104167
        k(  104) = (   0.0833333   0.4570690   0.0000000), wk =   0.0104167
        k(  105) = (   0.0833333   0.4811252   0.0000000), wk =   0.0104167
        k(  106) = (   0.0833333   0.5051815   0.0000000), wk =   0.0104167
        k(  107) = (   0.0833333   0.5292377   0.0000000), wk =   0.0104167
        k(  108) = (   0.0833333   0.5532940   0.0000000), wk =   0.0104167
        k(  109) = (   0.0833333   0.5773503   0.0000000), wk =   0.0052083
        k(  110) = (   0.1041667   0.1804220   0.0000000), wk =   0.0052083
        k(  111) = (   0.1041667   0.2044782   0.0000000), wk =   0.0104167
        k(  112) = (   0.1041667   0.2285345   0.0000000), wk =   0.0104167
        k(  113) = (   0.1041667   0.2525907   0.0000000), wk =   0.0104167
        k(  114) = (   0.1041667   0.2766470   0.0000000), wk =   0.0104167
        k(  115) = (   0.1041667   0.3007033   0.0000000), wk =   0.0104167
        k(  116) = (   0.1041667   0.3247595   0.0000000), wk =   0.0104167
        k(  117) = (   0.1041667   0.3488158   0.0000000), wk =   0.0104167
        k(  118) = (   0.1041667   0.3728720   0.0000000), wk =   0.0104167
        k(  119) = (   0.1041667   0.3969283   0.0000000), wk =   0.0104167
        k(  120) = (   0.1041667   0.4209846   0.0000000), wk =   0.0104167
        k(  121) = (   0.1041667   0.4450408   0.0000000), wk =   0.0104167
        k(  122) = (   0.1041667   0.4690971   0.0000000), wk =   0.0104167
        k(  123) = (   0.1041667   0.4931534   0.0000000), wk =   0.0104167
        k(  124) = (   0.1041667   0.5172096   0.0000000), wk =   0.0104167
        k(  125) = (   0.1041667   0.5412659   0.0000000), wk =   0.0104167
        k(  126) = (   0.1041667   0.5653221   0.0000000), wk =   0.0104167
        k(  127) = (   0.1250000   0.2165064   0.0000000), wk =   0.0052083
        k(  128) = (   0.1250000   0.2405626   0.0000000), wk =   0.0104167
        k(  129) = (   0.1250000   0.2646189   0.0000000), wk =   0.0104167
        k(  130) = (   0.1250000   0.2886751   0.0000000), wk =   0.0104167
        k(  131) = (   0.1250000   0.3127314   0.0000000), wk =   0.0104167
        k(  132) = (   0.1250000   0.3367877   0.0000000), wk =   0.0104167
        k(  133) = (   0.1250000   0.3608439   0.0000000), wk =   0.0104167
        k(  134) = (   0.1250000   0.3849002   0.0000000), wk =   0.0104167
        k(  135) = (   0.1250000   0.4089564   0.0000000), wk =   0.0104167
        k(  136) = (   0.1250000   0.4330127   0.0000000), wk =   0.0104167
        k(  137) = (   0.1250000   0.4570690   0.0000000), wk =   0.0104167
        k(  138) = (   0.1250000   0.4811252   0.0000000), wk =   0.0104167
        k(  139) = (   0.1250000   0.5051815   0.0000000), wk =   0.0104167
        k(  140) = (   0.1250000   0.5292377   0.0000000), wk =   0.0104167
        k(  141) = (   0.1250000   0.5532940   0.0000000), wk =   0.0104167
        k(  142) = (   0.1250000   0.5773503   0.0000000), wk =   0.0052083
        k(  143) = (   0.1458333   0.2525907   0.0000000), wk =   0.0052083
        k(  144) = (   0.1458333   0.2766470   0.0000000), wk =   0.0104167
        k(  145) = (   0.1458333   0.3007033   0.0000000), wk =   0.0104167
        k(  146) = (   0.1458333   0.3247595   0.0000000), wk =   0.0104167
        k(  147) = (   0.1458333   0.3488158   0.0000000), wk =   0.0104167
        k(  148) = (   0.1458333   0.3728720   0.0000000), wk =   0.0104167
        k(  149) = (   0.1458333   0.3969283   0.0000000), wk =   0.0104167
        k(  150) = (   0.1458333   0.4209846   0.0000000), wk =   0.0104167
        k(  151) = (   0.1458333   0.4450408   0.0000000), wk =   0.0104167
        k(  152) = (   0.1458333   0.4690971   0.0000000), wk =   0.0104167
        k(  153) = (   0.1458333   0.4931534   0.0000000), wk =   0.0104167
        k(  154) = (   0.1458333   0.5172096   0.0000000), wk =   0.0104167
        k(  155) = (   0.1458333   0.5412659   0.0000000), wk =   0.0104167
        k(  156) = (   0.1458333   0.5653221   0.0000000), wk =   0.0104167
        k(  157) = (   0.1666667   0.2886751   0.0000000), wk =   0.0052083
        k(  158) = (   0.1666667   0.3127314   0.0000000), wk =   0.0104167
        k(  159) = (   0.1666667   0.3367877   0.0000000), wk =   0.0104167
        k(  160) = (   0.1666667   0.3608439   0.0000000), wk =   0.0104167
        k(  161) = (   0.1666667   0.3849002   0.0000000), wk =   0.0104167
        k(  162) = (   0.1666667   0.4089564   0.0000000), wk =   0.0104167
        k(  163) = (   0.1666667   0.4330127   0.0000000), wk =   0.0104167
        k(  164) = (   0.1666667   0.4570690   0.0000000), wk =   0.0104167
        k(  165) = (   0.1666667   0.4811252   0.0000000), wk =   0.0104167
        k(  166) = (   0.1666667   0.5051815   0.0000000), wk =   0.0104167
        k(  167) = (   0.1666667   0.5292377   0.0000000), wk =   0.0104167
        k(  168) = (   0.1666667   0.5532940   0.0000000), wk =   0.0104167
        k(  169) = (   0.1666667   0.5773503   0.0000000), wk =   0.0052083
        k(  170) = (   0.1875000   0.3247595   0.0000000), wk =   0.0052083
        k(  171) = (   0.1875000   0.3488158   0.0000000), wk =   0.0104167
        k(  172) = (   0.1875000   0.3728720   0.0000000), wk =   0.0104167
        k(  173) = (   0.1875000   0.3969283   0.0000000), wk =   0.0104167
        k(  174) = (   0.1875000   0.4209846   0.0000000), wk =   0.0104167
        k(  175) = (   0.1875000   0.4450408   0.0000000), wk =   0.0104167
        k(  176) = (   0.1875000   0.4690971   0.0000000), wk =   0.0104167
        k(  177) = (   0.1875000   0.4931534   0.0000000), wk =   0.0104167
        k(  178) = (   0.1875000   0.5172096   0.0000000), wk =   0.0104167
        k(  179) = (   0.1875000   0.5412659   0.0000000), wk =   0.0104167
        k(  180) = (   0.1875000   0.5653221   0.0000000), wk =   0.0104167
        k(  181) = (   0.2083333   0.3608439   0.0000000), wk =   0.0052083
        k(  182) = (   0.2083333   0.3849002   0.0000000), wk =   0.0104167
        k(  183) = (   0.2083333   0.4089564   0.0000000), wk =   0.0104167
        k(  184) = (   0.2083333   0.4330127   0.0000000), wk =   0.0104167
        k(  185) = (   0.2083333   0.4570690   0.0000000), wk =   0.0104167
        k(  186) = (   0.2083333   0.4811252   0.0000000), wk =   0.0104167
        k(  187) = (   0.2083333   0.5051815   0.0000000), wk =   0.0104167
        k(  188) = (   0.2083333   0.5292377   0.0000000), wk =   0.0104167
        k(  189) = (   0.2083333   0.5532940   0.0000000), wk =   0.0104167
        k(  190) = (   0.2083333   0.5773503   0.0000000), wk =   0.0052083
        k(  191) = (   0.2291667   0.3969283   0.0000000), wk =   0.0052083
        k(  192) = (   0.2291667   0.4209846   0.0000000), wk =   0.0104167
        k(  193) = (   0.2291667   0.4450408   0.0000000), wk =   0.0104167
        k(  194) = (   0.2291667   0.4690971   0.0000000), wk =   0.0104167
        k(  195) = (   0.2291667   0.4931534   0.0000000), wk =   0.0104167
        k(  196) = (   0.2291667   0.5172096   0.0000000), wk =   0.0104167
        k(  197) = (   0.2291667   0.5412659   0.0000000), wk =   0.0104167
        k(  198) = (   0.2291667   0.5653221   0.0000000), wk =   0.0104167
        k(  199) = (   0.2500000   0.4330127   0.0000000), wk =   0.0052083
        k(  200) = (   0.2500000   0.4570690   0.0000000), wk =   0.0104167
        k(  201) = (   0.2500000   0.4811252   0.0000000), wk =   0.0104167
        k(  202) = (   0.2500000   0.5051815   0.0000000), wk =   0.0104167
        k(  203) = (   0.2500000   0.5292377   0.0000000), wk =   0.0104167
        k(  204) = (   0.2500000   0.5532940   0.0000000), wk =   0.0104167
        k(  205) = (   0.2500000   0.5773503   0.0000000), wk =   0.0052083
        k(  206) = (   0.2708333   0.4690971   0.0000000), wk =   0.0052083
        k(  207) = (   0.2708333   0.4931534   0.0000000), wk =   0.0104167
        k(  208) = (   0.2708333   0.5172096   0.0000000), wk =   0.0104167
        k(  209) = (   0.2708333   0.5412659   0.0000000), wk =   0.0104167
        k(  210) = (   0.2708333   0.5653221   0.0000000), wk =   0.0104167
        k(  211) = (   0.2916667   0.5051815   0.0000000), wk =   0.0052083
        k(  212) = (   0.2916667   0.5292377   0.0000000), wk =   0.0104167
        k(  213) = (   0.2916667   0.5532940   0.0000000), wk =   0.0104167
        k(  214) = (   0.2916667   0.5773503   0.0000000), wk =   0.0052083
        k(  215) = (   0.3125000   0.5412659   0.0000000), wk =   0.0052083
        k(  216) = (   0.3125000   0.5653221   0.0000000), wk =   0.0104167
        k(  217) = (   0.3333333   0.5773503   0.0000000), wk =   0.0017361

                       cryst. coord.
        k(    1) = (   0.0000000   0.0000000   0.0000000), wk =   0.0008681
        k(    2) = (   0.0000000   0.0208333   0.0000000), wk =   0.0052083
        k(    3) = (   0.0000000   0.0416667   0.0000000), wk =   0.0052083
        k(    4) = (   0.0000000   0.0625000   0.0000000), wk =   0.0052083
        k(    5) = (   0.0000000   0.0833333   0.0000000), wk =   0.0052083
        k(    6) = (   0.0000000   0.1041667   0.0000000), wk =   0.0052083
        k(    7) = (   0.0000000   0.1250000   0.0000000), wk =   0.0052083
        k(    8) = (   0.0000000   0.1458333   0.0000000), wk =   0.0052083
        k(    9) = (   0.0000000   0.1666667   0.0000000), wk =   0.0052083
        k(   10) = (   0.0000000   0.1875000   0.0000000), wk =   0.0052083
        k(   11) = (   0.0000000   0.2083333   0.0000000), wk =   0.0052083
        k(   12) = (   0.0000000   0.2291667   0.0000000), wk =   0.0052083
        k(   13) = (   0.0000000   0.2500000   0.0000000), wk =   0.0052083
        k(   14) = (   0.0000000   0.2708333   0.0000000), wk =   0.0052083
        k(   15) = (   0.0000000   0.2916667   0.0000000), wk =   0.0052083
        k(   16) = (   0.0000000   0.3125000   0.0000000), wk =   0.0052083
        k(   17) = (   0.0000000   0.3333333   0.0000000), wk =   0.0052083
        k(   18) = (   0.0000000   0.3541667   0.0000000), wk =   0.0052083
        k(   19) = (   0.0000000   0.3750000   0.0000000), wk =   0.0052083
        k(   20) = (   0.0000000   0.3958333   0.0000000), wk =   0.0052083
        k(   21) = (   0.0000000   0.4166667   0.0000000), wk =   0.0052083
        k(   22) = (   0.0000000   0.4375000   0.0000000), wk =   0.0052083
        k(   23) = (   0.0000000   0.4583333   0.0000000), wk =   0.0052083
        k(   24) = (   0.0000000   0.4791667   0.0000000), wk =   0.0052083
        k(   25) = (   0.0000000  -0.5000000   0.0000000), wk =   0.0026042
        k(   26) = (   0.0208333   0.0208333   0.0000000), wk =   0.0052083
        k(   27) = (   0.0208333   0.0416667   0.0000000), wk =   0.0104167
        k(   28) = (   0.0208333   0.0625000   0.0000000), wk =   0.0104167
        k(   29) = (   0.0208333   0.0833333   0.0000000), wk =   0.0104167
        k(   30) = (   0.0208333   0.1041667   0.0000000), wk =   0.0104167
        k(   31) = (   0.0208333   0.1250000   0.0000000), wk =   0.0104167
        k(   32) = (   0.0208333   0.1458333   0.0000000), wk =   0.0104167
        k(   33) = (   0.0208333   0.1666667   0.0000000), wk =   0.0104167
        k(   34) = (   0.0208333   0.1875000   0.0000000), wk =   0.0104167
        k(   35) = (   0.0208333   0.2083333   0.0000000), wk =   0.0104167
        k(   36) = (   0.0208333   0.2291667   0.0000000), wk =   0.0104167
        k(   37) = (   0.0208333   0.2500000   0.0000000), wk =   0.0104167
        k(   38) = (   0.0208333   0.2708333   0.0000000), wk =   0.0104167
        k(   39) = (   0.0208333   0.2916667   0.0000000), wk =   0.0104167
        k(   40) = (   0.0208333   0.3125000   0.0000000), wk =   0.0104167
        k(   41) = (   0.0208333   0.3333333   0.0000000), wk =   0.0104167
        k(   42) = (   0.0208333   0.3541667   0.0000000), wk =   0.0104167
        k(   43) = (   0.0208333   0.3750000   0.0000000), wk =   0.0104167
        k(   44) = (   0.0208333   0.3958333   0.0000000), wk =   0.0104167
        k(   45) = (   0.0208333   0.4166667   0.0000000), wk =   0.0104167
        k(   46) = (   0.0208333   0.4375000   0.0000000), wk =   0.0104167
        k(   47) = (   0.0208333   0.4583333   0.0000000), wk =   0.0104167
        k(   48) = (   0.0208333   0.4791667   0.0000000), wk =   0.0104167
        k(   49) = (   0.0416667   0.0416667   0.0000000), wk =   0.0052083
        k(   50) = (   0.0416667   0.0625000   0.0000000), wk =   0.0104167
        k(   51) = (   0.0416667   0.0833333   0.0000000), wk =   0.0104167
        k(   52) = (   0.0416667   0.1041667   0.0000000), wk =   0.0104167
        k(   53) = (   0.0416667   0.1250000   0.0000000), wk =   0.0104167
        k(   54) = (   0.0416667   0.1458333   0.0000000), wk =   0.0104167
        k(   55) = (   0.0416667   0.1666667   0.0000000), wk =   0.0104167
        k(   56) = (   0.0416667   0.1875000   0.0000000), wk =   0.0104167
        k(   57) = (   0.0416667   0.2083333   0.0000000), wk =   0.0104167
        k(   58) = (   0.0416667   0.2291667   0.0000000), wk =   0.0104167
        k(   59) = (   0.0416667   0.2500000   0.0000000), wk =   0.0104167
        k(   60) = (   0.0416667   0.2708333   0.0000000), wk =   0.0104167
        k(   61) = (   0.0416667   0.2916667   0.0000000), wk =   0.0104167
        k(   62) = (   0.0416667   0.3125000   0.0000000), wk =   0.0104167
        k(   63) = (   0.0416667   0.3333333   0.0000000), wk =   0.0104167
        k(   64) = (   0.0416667   0.3541667   0.0000000), wk =   0.0104167
        k(   65) = (   0.0416667   0.3750000   0.0000000), wk =   0.0104167
        k(   66) = (   0.0416667   0.3958333   0.0000000), wk =   0.0104167
        k(   67) = (   0.0416667   0.4166667   0.0000000), wk =   0.0104167
        k(   68) = (   0.0416667   0.4375000   0.0000000), wk =   0.0104167
        k(   69) = (   0.0416667   0.4583333   0.0000000), wk =   0.0104167
        k(   70) = (   0.0416667   0.4791667   0.0000000), wk =   0.0052083
        k(   71) = (   0.0625000   0.0625000   0.0000000), wk =   0.0052083
        k(   72) = (   0.0625000   0.0833333   0.0000000), wk =   0.0104167
        k(   73) = (   0.0625000   0.1041667   0.0000000), wk =   0.0104167
        k(   74) = (   0.0625000   0.1250000   0.0000000), wk =   0.0104167
        k(   75) = (   0.0625000   0.1458333   0.0000000), wk =   0.0104167
        k(   76) = (   0.0625000   0.1666667   0.0000000), wk =   0.0104167
        k(   77) = (   0.0625000   0.1875000   0.0000000), wk =   0.0104167
        k(   78) = (   0.0625000   0.2083333   0.0000000), wk =   0.0104167
        k(   79) = (   0.0625000   0.2291667   0.0000000), wk =   0.0104167
        k(   80) = (   0.0625000   0.2500000   0.0000000), wk =   0.0104167
        k(   81) = (   0.0625000   0.2708333   0.0000000), wk =   0.0104167
        k(   82) = (   0.0625000   0.2916667   0.0000000), wk =   0.0104167
        k(   83) = (   0.0625000   0.3125000   0.0000000), wk =   0.0104167
        k(   84) = (   0.0625000   0.3333333   0.0000000), wk =   0.0104167
        k(   85) = (   0.0625000   0.3541667   0.0000000), wk =   0.0104167
        k(   86) = (   0.0625000   0.3750000   0.0000000), wk =   0.0104167
        k(   87) = (   0.0625000   0.3958333   0.0000000), wk =   0.0104167
        k(   88) = (   0.0625000   0.4166667   0.0000000), wk =   0.0104167
        k(   89) = (   0.0625000   0.4375000   0.0000000), wk =   0.0104167
        k(   90) = (   0.0625000   0.4583333   0.0000000), wk =   0.0104167
        k(   91) = (   0.0833333   0.0833333   0.0000000), wk =   0.0052083
        k(   92) = (   0.0833333   0.1041667   0.0000000), wk =   0.0104167
        k(   93) = (   0.0833333   0.1250000   0.0000000), wk =   0.0104167
        k(   94) = (   0.0833333   0.1458333   0.0000000), wk =   0.0104167
        k(   95) = (   0.0833333   0.1666667   0.0000000), wk =   0.0104167
        k(   96) = (   0.0833333   0.1875000   0.0000000), wk =   0.0104167
        k(   97) = (   0.0833333   0.2083333   0.0000000), wk =   0.0104167
        k(   98) = (   0.0833333   0.2291667   0.0000000), wk =   0.0104167
        k(   99) = (   0.0833333   0.2500000   0.0000000), wk =   0.0104167
        k(  100) = (   0.0833333   0.2708333   0.0000000), wk =   0.0104167
        k(  101) = (   0.0833333   0.2916667   0.0000000), wk =   0.0104167
        k(  102) = (   0.0833333   0.3125000   0.0000000), wk =   0.0104167
        k(  103) = (   0.0833333   0.3333333   0.0000000), wk =   0.0104167
        k(  104) = (   0.0833333   0.3541667   0.0000000), wk =   0.0104167
        k(  105) = (   0.0833333   0.3750000   0.0000000), wk =   0.0104167
        k(  106) = (   0.0833333   0.3958333   0.0000000), wk =   0.0104167
        k(  107) = (   0.0833333   0.4166667   0.0000000), wk =   0.0104167
        k(  108) = (   0.0833333   0.4375000   0.0000000), wk =   0.0104167
        k(  109) = (   0.0833333   0.4583333   0.0000000), wk =   0.0052083
        k(  110) = (   0.1041667   0.1041667   0.0000000), wk =   0.0052083
        k(  111) = (   0.1041667   0.1250000   0.0000000), wk =   0.0104167
        k(  112) = (   0.1041667   0.1458333   0.0000000), wk =   0.0104167
        k(  113) = (   0.1041667   0.1666667   0.0000000), wk =   0.0104167
        k(  114) = (   0.1041667   0.1875000   0.0000000), wk =   0.0104167
        k(  115) = (   0.1041667   0.2083333   0.0000000), wk =   0.0104167
        k(  116) = (   0.1041667   0.2291667   0.0000000), wk =   0.0104167
        k(  117) = (   0.1041667   0.2500000   0.0000000), wk =   0.0104167
        k(  118) = (   0.1041667   0.2708333   0.0000000), wk =   0.0104167
        k(  119) = (   0.1041667   0.2916667   0.0000000), wk =   0.0104167
        k(  120) = (   0.1041667   0.3125000   0.0000000), wk =   0.0104167
        k(  121) = (   0.1041667   0.3333333   0.0000000), wk =   0.0104167
        k(  122) = (   0.1041667   0.3541667   0.0000000), wk =   0.0104167
        k(  123) = (   0.1041667   0.3750000   0.0000000), wk =   0.0104167
        k(  124) = (   0.1041667   0.3958333   0.0000000), wk =   0.0104167
        k(  125) = (   0.1041667   0.4166667   0.0000000), wk =   0.0104167
        k(  126) = (   0.1041667   0.4375000   0.0000000), wk =   0.0104167
        k(  127) = (   0.1250000   0.1250000   0.0000000), wk =   0.0052083
        k(  128) = (   0.1250000   0.1458333   0.0000000), wk =   0.0104167
        k(  129) = (   0.1250000   0.1666667   0.0000000), wk =   0.0104167
        k(  130) = (   0.1250000   0.1875000   0.0000000), wk =   0.0104167
        k(  131) = (   0.1250000   0.2083333   0.0000000), wk =   0.0104167
        k(  132) = (   0.1250000   0.2291667   0.0000000), wk =   0.0104167
        k(  133) = (   0.1250000   0.2500000   0.0000000), wk =   0.0104167
        k(  134) = (   0.1250000   0.2708333   0.0000000), wk =   0.0104167
        k(  135) = (   0.1250000   0.2916667   0.0000000), wk =   0.0104167
        k(  136) = (   0.1250000   0.3125000   0.0000000), wk =   0.0104167
        k(  137) = (   0.1250000   0.3333333   0.0000000), wk =   0.0104167
        k(  138) = (   0.1250000   0.3541667   0.0000000), wk =   0.0104167
        k(  139) = (   0.1250000   0.3750000   0.0000000), wk =   0.0104167
        k(  140) = (   0.1250000   0.3958333   0.0000000), wk =   0.0104167
        k(  141) = (   0.1250000   0.4166667   0.0000000), wk =   0.0104167
        k(  142) = (   0.1250000   0.4375000   0.0000000), wk =   0.0052083
        k(  143) = (   0.1458333   0.1458333   0.0000000), wk =   0.0052083
        k(  144) = (   0.1458333   0.1666667   0.0000000), wk =   0.0104167
        k(  145) = (   0.1458333   0.1875000   0.0000000), wk =   0.0104167
        k(  146) = (   0.1458333   0.2083333   0.0000000), wk =   0.0104167
        k(  147) = (   0.1458333   0.2291667   0.0000000), wk =   0.0104167
        k(  148) = (   0.1458333   0.2500000   0.0000000), wk =   0.0104167
        k(  149) = (   0.1458333   0.2708333   0.0000000), wk =   0.0104167
        k(  150) = (   0.1458333   0.2916667   0.0000000), wk =   0.0104167
        k(  151) = (   0.1458333   0.3125000   0.0000000), wk =   0.0104167
        k(  152) = (   0.1458333   0.3333333   0.0000000), wk =   0.0104167
        k(  153) = (   0.1458333   0.3541667   0.0000000), wk =   0.0104167
        k(  154) = (   0.1458333   0.3750000   0.0000000), wk =   0.0104167
        k(  155) = (   0.1458333   0.3958333   0.0000000), wk =   0.0104167
        k(  156) = (   0.1458333   0.4166667   0.0000000), wk =   0.0104167
        k(  157) = (   0.1666667   0.1666667   0.0000000), wk =   0.0052083
        k(  158) = (   0.1666667   0.1875000   0.0000000), wk =   0.0104167
        k(  159) = (   0.1666667   0.2083333   0.0000000), wk =   0.0104167
        k(  160) = (   0.1666667   0.2291667   0.0000000), wk =   0.0104167
        k(  161) = (   0.1666667   0.2500000   0.0000000), wk =   0.0104167
        k(  162) = (   0.1666667   0.2708333   0.0000000), wk =   0.0104167
        k(  163) = (   0.1666667   0.2916667   0.0000000), wk =   0.0104167
        k(  164) = (   0.1666667   0.3125000   0.0000000), wk =   0.0104167
        k(  165) = (   0.1666667   0.3333333   0.0000000), wk =   0.0104167
        k(  166) = (   0.1666667   0.3541667   0.0000000), wk =   0.0104167
        k(  167) = (   0.1666667   0.3750000   0.0000000), wk =   0.0104167
        k(  168) = (   0.1666667   0.3958333   0.0000000), wk =   0.0104167
        k(  169) = (   0.1666667   0.4166667   0.0000000), wk =   0.0052083
        k(  170) = (   0.1875000   0.1875000   0.0000000), wk =   0.0052083
        k(  171) = (   0.1875000   0.2083333   0.0000000), wk =   0.0104167
        k(  172) = (   0.1875000   0.2291667   0.0000000), wk =   0.0104167
        k(  173) = (   0.1875000   0.2500000   0.0000000), wk =   0.0104167
        k(  174) = (   0.1875000   0.2708333   0.0000000), wk =   0.0104167
        k(  175) = (   0.1875000   0.2916667   0.0000000), wk =   0.0104167
        k(  176) = (   0.1875000   0.3125000   0.0000000), wk =   0.0104167
        k(  177) = (   0.1875000   0.3333333   0.0000000), wk =   0.0104167
        k(  178) = (   0.1875000   0.3541667   0.0000000), wk =   0.0104167
        k(  179) = (   0.1875000   0.3750000   0.0000000), wk =   0.0104167
        k(  180) = (   0.1875000   0.3958333   0.0000000), wk =   0.0104167
        k(  181) = (   0.2083333   0.2083333   0.0000000), wk =   0.0052083
        k(  182) = (   0.2083333   0.2291667   0.0000000), wk =   0.0104167
        k(  183) = (   0.2083333   0.2500000   0.0000000), wk =   0.0104167
        k(  184) = (   0.2083333   0.2708333   0.0000000), wk =   0.0104167
        k(  185) = (   0.2083333   0.2916667   0.0000000), wk =   0.0104167
        k(  186) = (   0.2083333   0.3125000   0.0000000), wk =   0.0104167
        k(  187) = (   0.2083333   0.3333333   0.0000000), wk =   0.0104167
        k(  188) = (   0.2083333   0.3541667   0.0000000), wk =   0.0104167
        k(  189) = (   0.2083333   0.3750000   0.0000000), wk =   0.0104167
        k(  190) = (   0.2083333   0.3958333   0.0000000), wk =   0.0052083
        k(  191) = (   0.2291667   0.2291667   0.0000000), wk =   0.0052083
        k(  192) = (   0.2291667   0.2500000   0.0000000), wk =   0.0104167
        k(  193) = (   0.2291667   0.2708333   0.0000000), wk =   0.0104167
        k(  194) = (   0.2291667   0.2916667   0.0000000), wk =   0.0104167
        k(  195) = (   0.2291667   0.3125000   0.0000000), wk =   0.0104167
        k(  196) = (   0.2291667   0.3333333   0.0000000), wk =   0.0104167
        k(  197) = (   0.2291667   0.3541667   0.0000000), wk =   0.0104167
        k(  198) = (   0.2291667   0.3750000   0.0000000), wk =   0.0104167
        k(  199) = (   0.2500000   0.2500000   0.0000000), wk =   0.0052083
        k(  200) = (   0.2500000   0.2708333   0.0000000), wk =   0.0104167
        k(  201) = (   0.2500000   0.2916667   0.0000000), wk =   0.0104167
        k(  202) = (   0.2500000   0.3125000   0.0000000), wk =   0.0104167
        k(  203) = (   0.2500000   0.3333333   0.0000000), wk =   0.0104167
        k(  204) = (   0.2500000   0.3541667   0.0000000), wk =   0.0104167
        k(  205) = (   0.2500000   0.3750000   0.0000000), wk =   0.0052083
        k(  206) = (   0.2708333   0.2708333   0.0000000), wk =   0.0052083
        k(  207) = (   0.2708333   0.2916667   0.0000000), wk =   0.0104167
        k(  208) = (   0.2708333   0.3125000   0.0000000), wk =   0.0104167
        k(  209) = (   0.2708333   0.3333333   0.0000000), wk =   0.0104167
        k(  210) = (   0.2708333   0.3541667   0.0000000), wk =   0.0104167
        k(  211) = (   0.2916667   0.2916667   0.0000000), wk =   0.0052083
        k(  212) = (   0.2916667   0.3125000   0.0000000), wk =   0.0104167
        k(  213) = (   0.2916667   0.3333333   0.0000000), wk =   0.0104167
        k(  214) = (   0.2916667   0.3541667   0.0000000), wk =   0.0052083
        k(  215) = (   0.3125000   0.3125000   0.0000000), wk =   0.0052083
        k(  216) = (   0.3125000   0.3333333   0.0000000), wk =   0.0104167
        k(  217) = (   0.3333333   0.3333333   0.0000000), wk =   0.0017361

     Dense  grid:   454685 G-vectors     FFT dimensions: (  64,  64, 270)

     Smooth grid:   160699 G-vectors     FFT dimensions: (  45,  45, 192)

     Dynamical RAM for                 wfc:       0.82 MB

     Dynamical RAM for     wfc (w. buffer):       0.82 MB

     Dynamical RAM for           str. fact:       1.16 MB

     Dynamical RAM for           local pot:       0.00 MB

     Dynamical RAM for          nlocal pot:       1.84 MB

     Dynamical RAM for                qrad:       1.76 MB

     Dynamical RAM for          rho,v,vnew:       7.69 MB

     Dynamical RAM for           G-vectors:       4.54 MB

     Dynamical RAM for          h,s,v(r/c):       0.05 MB

     Dynamical RAM for          <psi|beta>:       0.01 MB

     Dynamical RAM for                 psi:       1.63 MB

     Dynamical RAM for                hpsi:       1.63 MB

     Dynamical RAM for                spsi:       1.63 MB

     Dynamical RAM for      wfcinit/wfcrot:       1.85 MB

     Dynamical RAM for           addusdens:     217.40 MB

     Estimated static dynamical RAM per process >      27.14 MB

     Estimated max dynamical RAM per process >     244.54 MB

     Estimated total dynamical RAM >       1.43 GB

     The potential is recalculated from file :
     ../tmp/stanene.save/charge-density


     negative rho (up, down):  5.379E-05 0.000E+00
     Starting wfcs are   18 randomized atomic wfcs

     Band Structure Calculation
     Davidson diagonalization with overlap

     Computing kpt #:     1  of   217
     total cpu time spent up to now is       39.7 secs

     Computing kpt #:     2  of   217
     total cpu time spent up to now is      109.7 secs

     Computing kpt #:     3  of   217
     total cpu time spent up to now is      177.4 secs

     Computing kpt #:     4  of   217
     total cpu time spent up to now is      223.1 secs

     Computing kpt #:     5  of   217
     total cpu time spent up to now is      262.2 secs

     Computing kpt #:     6  of   217
     total cpu time spent up to now is      305.8 secs

     Computing kpt #:     7  of   217
     total cpu time spent up to now is      349.4 secs

     Computing kpt #:     8  of   217
     total cpu time spent up to now is      397.4 secs

     Computing kpt #:     9  of   217
     total cpu time spent up to now is      446.1 secs

     Computing kpt #:    10  of   217
     total cpu time spent up to now is      498.6 secs

     Computing kpt #:    11  of   217
     total cpu time spent up to now is      546.3 secs

     Computing kpt #:    12  of   217
     total cpu time spent up to now is      578.0 secs

     Computing kpt #:    13  of   217
     total cpu time spent up to now is      607.6 secs

     Computing kpt #:    14  of   217
     total cpu time spent up to now is      636.2 secs

     Computing kpt #:    15  of   217
     total cpu time spent up to now is      664.9 secs

     Computing kpt #:    16  of   217
     total cpu time spent up to now is      691.7 secs

     Computing kpt #:    17  of   217
     total cpu time spent up to now is      718.0 secs

     Computing kpt #:    18  of   217
     total cpu time spent up to now is      745.2 secs

     Computing kpt #:    19  of   217
     total cpu time spent up to now is      772.0 secs

     Computing kpt #:    20  of   217
     total cpu time spent up to now is      799.1 secs

     Computing kpt #:    21  of   217
     total cpu time spent up to now is      824.8 secs

     Computing kpt #:    22  of   217
     total cpu time spent up to now is      851.5 secs

     Computing kpt #:    23  of   217
     total cpu time spent up to now is      877.8 secs

     Computing kpt #:    24  of   217
     total cpu time spent up to now is      904.2 secs

     Computing kpt #:    25  of   217
     total cpu time spent up to now is      931.4 secs

     Computing kpt #:    26  of   217
     total cpu time spent up to now is      985.0 secs

     Computing kpt #:    27  of   217
     total cpu time spent up to now is     1028.4 secs

     Computing kpt #:    28  of   217
     total cpu time spent up to now is     1075.9 secs

     Computing kpt #:    29  of   217
     total cpu time spent up to now is     1113.9 secs

     Computing kpt #:    30  of   217
     total cpu time spent up to now is     1151.3 secs

     Computing kpt #:    31  of   217
     total cpu time spent up to now is     1189.7 secs

     Computing kpt #:    32  of   217
     total cpu time spent up to now is     1235.5 secs

     Computing kpt #:    33  of   217
     total cpu time spent up to now is     1282.5 secs

     Computing kpt #:    34  of   217
     total cpu time spent up to now is     1350.9 secs

     Computing kpt #:    35  of   217
     total cpu time spent up to now is     1386.1 secs

     Computing kpt #:    36  of   217
     total cpu time spent up to now is     1421.2 secs

     Computing kpt #:    37  of   217
     total cpu time spent up to now is     1451.9 secs

     Computing kpt #:    38  of   217
     total cpu time spent up to now is     1481.5 secs

     Computing kpt #:    39  of   217
     total cpu time spent up to now is     1510.9 secs

     Computing kpt #:    40  of   217
     total cpu time spent up to now is     1540.4 secs

     Computing kpt #:    41  of   217
     total cpu time spent up to now is     1568.1 secs

     Computing kpt #:    42  of   217
     total cpu time spent up to now is     1596.6 secs

     Computing kpt #:    43  of   217
     total cpu time spent up to now is     1623.7 secs

     Computing kpt #:    44  of   217
     total cpu time spent up to now is     1653.5 secs

     Computing kpt #:    45  of   217
     total cpu time spent up to now is     1681.7 secs

     Computing kpt #:    46  of   217
     total cpu time spent up to now is     1709.3 secs

     Computing kpt #:    47  of   217
     total cpu time spent up to now is     1737.1 secs

     Computing kpt #:    48  of   217
     total cpu time spent up to now is     1763.4 secs

     Computing kpt #:    49  of   217
     total cpu time spent up to now is     1809.0 secs

     Computing kpt #:    50  of   217
     total cpu time spent up to now is     1843.6 secs

     Computing kpt #:    51  of   217
     total cpu time spent up to now is     1881.3 secs

     Computing kpt #:    52  of   217
     total cpu time spent up to now is     1917.2 secs

     Computing kpt #:    53  of   217
     total cpu time spent up to now is     1959.7 secs

     Computing kpt #:    54  of   217
     total cpu time spent up to now is     2005.7 secs

     Computing kpt #:    55  of   217
     total cpu time spent up to now is     2054.7 secs

     Computing kpt #:    56  of   217
     total cpu time spent up to now is     2093.5 secs

     Computing kpt #:    57  of   217
     total cpu time spent up to now is     2127.7 secs

     Computing kpt #:    58  of   217
     total cpu time spent up to now is     2157.4 secs

     Computing kpt #:    59  of   217
     total cpu time spent up to now is     2186.1 secs

     Computing kpt #:    60  of   217
     total cpu time spent up to now is     2213.8 secs

     Computing kpt #:    61  of   217
     total cpu time spent up to now is     2242.9 secs

     Computing kpt #:    62  of   217
     total cpu time spent up to now is     2270.8 secs

     Computing kpt #:    63  of   217
     total cpu time spent up to now is     2298.4 secs

     Computing kpt #:    64  of   217
     total cpu time spent up to now is     2325.4 secs

     Computing kpt #:    65  of   217
     total cpu time spent up to now is     2352.3 secs

     Computing kpt #:    66  of   217
     total cpu time spent up to now is     2378.6 secs

     Computing kpt #:    67  of   217
     total cpu time spent up to now is     2403.8 secs

     Computing kpt #:    68  of   217
     total cpu time spent up to now is     2430.9 secs

     Computing kpt #:    69  of   217
     total cpu time spent up to now is     2457.0 secs

     Computing kpt #:    70  of   217
     total cpu time spent up to now is     2483.4 secs

     Computing kpt #:    71  of   217
     total cpu time spent up to now is     2520.0 secs

     Computing kpt #:    72  of   217
     total cpu time spent up to now is     2556.0 secs

     Computing kpt #:    73  of   217
     total cpu time spent up to now is     2600.8 secs

     Computing kpt #:    74  of   217
     total cpu time spent up to now is     2645.9 secs

     Computing kpt #:    75  of   217
     total cpu time spent up to now is     2692.7 secs

     Computing kpt #:    76  of   217
     total cpu time spent up to now is     2745.5 secs

     Computing kpt #:    77  of   217
     total cpu time spent up to now is     2782.0 secs

     Computing kpt #:    78  of   217
     total cpu time spent up to now is     2827.9 secs

     Computing kpt #:    79  of   217
     total cpu time spent up to now is     2861.6 secs

     Computing kpt #:    80  of   217
     total cpu time spent up to now is     2899.4 secs

     Computing kpt #:    81  of   217
     total cpu time spent up to now is     2928.7 secs

     Computing kpt #:    82  of   217
     total cpu time spent up to now is     2958.4 secs

     Computing kpt #:    83  of   217
     total cpu time spent up to now is     2986.8 secs

     Computing kpt #:    84  of   217
     total cpu time spent up to now is     3015.2 secs

     Computing kpt #:    85  of   217
     total cpu time spent up to now is     3043.0 secs

     Computing kpt #:    86  of   217
     total cpu time spent up to now is     3071.4 secs

     Computing kpt #:    87  of   217
     total cpu time spent up to now is     3097.5 secs

     Computing kpt #:    88  of   217
     total cpu time spent up to now is     3124.8 secs

     Computing kpt #:    89  of   217
     total cpu time spent up to now is     3151.2 secs

     Computing kpt #:    90  of   217
     total cpu time spent up to now is     3178.2 secs

     Computing kpt #:    91  of   217
     total cpu time spent up to now is     3222.9 secs

     Computing kpt #:    92  of   217
     total cpu time spent up to now is     3269.4 secs

     Computing kpt #:    93  of   217
     total cpu time spent up to now is     3316.3 secs

     Computing kpt #:    94  of   217
     total cpu time spent up to now is     3369.3 secs

     Computing kpt #:    95  of   217
     total cpu time spent up to now is     3431.8 secs

     Computing kpt #:    96  of   217
     total cpu time spent up to now is     3464.9 secs

     Computing kpt #:    97  of   217
     total cpu time spent up to now is     3495.4 secs

     Computing kpt #:    98  of   217
     total cpu time spent up to now is     3524.1 secs

     Computing kpt #:    99  of   217
     total cpu time spent up to now is     3554.2 secs

     Computing kpt #:   100  of   217
     total cpu time spent up to now is     3583.6 secs

     Computing kpt #:   101  of   217
     total cpu time spent up to now is     3612.9 secs

     Computing kpt #:   102  of   217
     total cpu time spent up to now is     3641.5 secs

     Computing kpt #:   103  of   217
     total cpu time spent up to now is     3668.5 secs

     Computing kpt #:   104  of   217
     total cpu time spent up to now is     3694.9 secs

     Computing kpt #:   105  of   217
     total cpu time spent up to now is     3720.6 secs

     Computing kpt #:   106  of   217
     total cpu time spent up to now is     3747.7 secs

     Computing kpt #:   107  of   217
     total cpu time spent up to now is     3774.6 secs

     Computing kpt #:   108  of   217
     total cpu time spent up to now is     3801.3 secs

     Computing kpt #:   109  of   217
     total cpu time spent up to now is     3828.0 secs

     Computing kpt #:   110  of   217
     total cpu time spent up to now is     3871.5 secs

     Computing kpt #:   111  of   217
     total cpu time spent up to now is     3915.6 secs

     Computing kpt #:   112  of   217
     total cpu time spent up to now is     3968.1 secs

     Computing kpt #:   113  of   217
     total cpu time spent up to now is     4001.5 secs

     Computing kpt #:   114  of   217
     total cpu time spent up to now is     4032.5 secs

     Computing kpt #:   115  of   217
     total cpu time spent up to now is     4063.3 secs

     Computing kpt #:   116  of   217
     total cpu time spent up to now is     4091.8 secs

     Computing kpt #:   117  of   217
     total cpu time spent up to now is     4121.4 secs

     Computing kpt #:   118  of   217
     total cpu time spent up to now is     4150.0 secs

     Computing kpt #:   119  of   217
     total cpu time spent up to now is     4178.6 secs

     Computing kpt #:   120  of   217
     total cpu time spent up to now is     4206.4 secs

     Computing kpt #:   121  of   217
     total cpu time spent up to now is     4234.8 secs

     Computing kpt #:   122  of   217
     total cpu time spent up to now is     4261.9 secs

     Computing kpt #:   123  of   217
     total cpu time spent up to now is     4287.6 secs

     Computing kpt #:   124  of   217
     total cpu time spent up to now is     4312.5 secs

     Computing kpt #:   125  of   217
     total cpu time spent up to now is     4340.1 secs

     Computing kpt #:   126  of   217
     total cpu time spent up to now is     4370.0 secs

     Computing kpt #:   127  of   217
     total cpu time spent up to now is     4420.3 secs

     Computing kpt #:   128  of   217
     total cpu time spent up to now is     4472.3 secs

     Computing kpt #:   129  of   217
     total cpu time spent up to now is     4505.5 secs

     Computing kpt #:   130  of   217
     total cpu time spent up to now is     4537.8 secs

     Computing kpt #:   131  of   217
     total cpu time spent up to now is     4569.1 secs

     Computing kpt #:   132  of   217
     total cpu time spent up to now is     4599.2 secs

     Computing kpt #:   133  of   217
     total cpu time spent up to now is     4629.8 secs

     Computing kpt #:   134  of   217
     total cpu time spent up to now is     4659.4 secs

     Computing kpt #:   135  of   217
     total cpu time spent up to now is     4689.5 secs

     Computing kpt #:   136  of   217
     total cpu time spent up to now is     4719.0 secs

     Computing kpt #:   137  of   217
     total cpu time spent up to now is     4748.2 secs

     Computing kpt #:   138  of   217
     total cpu time spent up to now is     4776.7 secs

     Computing kpt #:   139  of   217
     total cpu time spent up to now is     4804.7 secs

     Computing kpt #:   140  of   217
     total cpu time spent up to now is     4833.1 secs

     Computing kpt #:   141  of   217
     total cpu time spent up to now is     4861.1 secs

     Computing kpt #:   142  of   217
     total cpu time spent up to now is     4888.1 secs

     Computing kpt #:   143  of   217
     total cpu time spent up to now is     4921.3 secs

     Computing kpt #:   144  of   217
     total cpu time spent up to now is     4953.2 secs

     Computing kpt #:   145  of   217
     total cpu time spent up to now is     4985.1 secs

     Computing kpt #:   146  of   217
     total cpu time spent up to now is     5016.3 secs

     Computing kpt #:   147  of   217
     total cpu time spent up to now is     5048.7 secs

     Computing kpt #:   148  of   217
     total cpu time spent up to now is     5080.9 secs

     Computing kpt #:   149  of   217
     total cpu time spent up to now is     5112.0 secs

     Computing kpt #:   150  of   217
     total cpu time spent up to now is     5142.0 secs

     Computing kpt #:   151  of   217
     total cpu time spent up to now is     5171.7 secs

     Computing kpt #:   152  of   217
     total cpu time spent up to now is     5201.1 secs

     Computing kpt #:   153  of   217
     total cpu time spent up to now is     5229.2 secs

     Computing kpt #:   154  of   217
     total cpu time spent up to now is     5257.2 secs

     Computing kpt #:   155  of   217
     total cpu time spent up to now is     5285.8 secs

     Computing kpt #:   156  of   217
     total cpu time spent up to now is     5324.3 secs

     Computing kpt #:   157  of   217
     total cpu time spent up to now is     5360.2 secs

     Computing kpt #:   158  of   217
     total cpu time spent up to now is     5400.5 secs

     Computing kpt #:   159  of   217
     total cpu time spent up to now is     5433.2 secs

     Computing kpt #:   160  of   217
     total cpu time spent up to now is     5464.1 secs

     Computing kpt #:   161  of   217
     total cpu time spent up to now is     5495.0 secs

     Computing kpt #:   162  of   217
     total cpu time spent up to now is     5526.0 secs

     Computing kpt #:   163  of   217
     total cpu time spent up to now is     5555.9 secs

     Computing kpt #:   164  of   217
     total cpu time spent up to now is     5585.9 secs

     Computing kpt #:   165  of   217
     total cpu time spent up to now is     5614.7 secs

     Computing kpt #:   166  of   217
     total cpu time spent up to now is     5642.7 secs

     Computing kpt #:   167  of   217
     total cpu time spent up to now is     5670.2 secs

     Computing kpt #:   168  of   217
     total cpu time spent up to now is     5698.0 secs

     Computing kpt #:   169  of   217
     total cpu time spent up to now is     5725.1 secs

     Computing kpt #:   170  of   217
     total cpu time spent up to now is     5754.9 secs

     Computing kpt #:   171  of   217
     total cpu time spent up to now is     5785.8 secs

     Computing kpt #:   172  of   217
     total cpu time spent up to now is     5817.3 secs

     Computing kpt #:   173  of   217
     total cpu time spent up to now is     5850.0 secs

     Computing kpt #:   174  of   217
     total cpu time spent up to now is     5881.0 secs

     Computing kpt #:   175  of   217
     total cpu time spent up to now is     5914.5 secs

     Computing kpt #:   176  of   217
     total cpu time spent up to now is     5945.7 secs

     Computing kpt #:   177  of   217
     total cpu time spent up to now is     5974.5 secs

     Computing kpt #:   178  of   217
     total cpu time spent up to now is     6001.9 secs

     Computing kpt #:   179  of   217
     total cpu time spent up to now is     6030.2 secs

     Computing kpt #:   180  of   217
     total cpu time spent up to now is     6057.9 secs

     Computing kpt #:   181  of   217
     total cpu time spent up to now is     6091.3 secs

     Computing kpt #:   182  of   217
     total cpu time spent up to now is     6121.5 secs

     Computing kpt #:   183  of   217
     total cpu time spent up to now is     6153.3 secs

     Computing kpt #:   184  of   217
     total cpu time spent up to now is     6185.0 secs

     Computing kpt #:   185  of   217
     total cpu time spent up to now is     6217.8 secs

     Computing kpt #:   186  of   217
     total cpu time spent up to now is     6249.1 secs

     Computing kpt #:   187  of   217
     total cpu time spent up to now is     6279.4 secs

     Computing kpt #:   188  of   217
     total cpu time spent up to now is     6308.7 secs

     Computing kpt #:   189  of   217
     total cpu time spent up to now is     6337.3 secs

     Computing kpt #:   190  of   217
     total cpu time spent up to now is     6365.7 secs

     Computing kpt #:   191  of   217
     total cpu time spent up to now is     6396.9 secs

     Computing kpt #:   192  of   217
     total cpu time spent up to now is     6431.3 secs

     Computing kpt #:   193  of   217
     total cpu time spent up to now is     6463.8 secs

     Computing kpt #:   194  of   217
     total cpu time spent up to now is     6496.5 secs

     Computing kpt #:   195  of   217
     total cpu time spent up to now is     6527.3 secs

     Computing kpt #:   196  of   217
     total cpu time spent up to now is     6560.5 secs

     Computing kpt #:   197  of   217
     total cpu time spent up to now is     6593.7 secs

     Computing kpt #:   198  of   217
     total cpu time spent up to now is     6624.3 secs

     Computing kpt #:   199  of   217
     total cpu time spent up to now is     6656.2 secs

     Computing kpt #:   200  of   217
     total cpu time spent up to now is     6690.1 secs

     Computing kpt #:   201  of   217
     total cpu time spent up to now is     6724.0 secs

     Computing kpt #:   202  of   217
     total cpu time spent up to now is     6761.4 secs

     Computing kpt #:   203  of   217
     total cpu time spent up to now is     6794.0 secs

     Computing kpt #:   204  of   217
     total cpu time spent up to now is     6823.9 secs

     Computing kpt #:   205  of   217
     total cpu time spent up to now is     6853.8 secs

     Computing kpt #:   206  of   217
     total cpu time spent up to now is     6884.8 secs

     Computing kpt #:   207  of   217
     total cpu time spent up to now is     6917.7 secs

     Computing kpt #:   208  of   217
     total cpu time spent up to now is     6951.2 secs

     Computing kpt #:   209  of   217
     total cpu time spent up to now is     6984.1 secs

     Computing kpt #:   210  of   217
     total cpu time spent up to now is     7015.6 secs

     Computing kpt #:   211  of   217
     total cpu time spent up to now is     7049.6 secs

     Computing kpt #:   212  of   217
     total cpu time spent up to now is     7083.6 secs

     Computing kpt #:   213  of   217
     total cpu time spent up to now is     7121.7 secs

     Computing kpt #:   214  of   217
     total cpu time spent up to now is     7154.2 secs

     Computing kpt #:   215  of   217
     total cpu time spent up to now is     7190.2 secs

     Computing kpt #:   216  of   217
     total cpu time spent up to now is     7231.8 secs

     Computing kpt #:   217  of   217
     total cpu time spent up to now is     7267.0 secs

     ethr =  3.57E-10,  avg # of iterations = 34.1

     total cpu time spent up to now is     7267.1 secs

     End of band structure calculation

          k = 0.0000 0.0000 0.0000 ( 20001 PWs)   bands (ev):

   -24.1519 -24.1407 -24.1407 -24.0332 -24.0332 -23.8751 -23.8751 -23.7996
   -23.7996 -23.7403 -12.3405  -4.3933  -3.8311  -3.4567  -3.4567   0.5494

     occupation numbers 
     1.0000   1.0000   1.0000   1.0000   1.0000   1.0000   1.0000   1.0000
     1.0000   1.0000   1.0000   1.0000   1.0000   1.0000   1.0000   0.0000

          k = 0.0000 0.0241 0.0000 ( 20017 PWs)   bands (ev):

   -24.1522 -24.1418 -24.1415 -24.0333 -24.0331 -23.8740 -23.8738 -23.7998
   -23.7995 -23.7403 -12.3368  -4.3895  -3.9913  -3.4652  -3.3010   0.5438

     occupation numbers 
     1.0000   1.0000   1.0000   1.0000   1.0000   1.0000   1.0000   1.0000
     1.0000   1.0000   1.0000   1.0000   1.0000   1.0000   1.0000   0.0000

          k = 0.0000 0.0481 0.0000 ( 20007 PWs)   bands (ev):

   -24.1531 -24.1453 -24.1436 -24.0336 -24.0326 -23.8708 -23.8700 -23.8004
   -23.7992 -23.7402 -12.3257  -4.3779  -4.2603  -3.4905  -3.0461   0.5293

     occupation numbers 
     1.0000   1.0000   1.0000   1.0000   1.0000   1.0000   1.0000   1.0000
     1.0000   1.0000   1.0000   1.0000   1.0000   1.0000   1.0000   0.0000

          k = 0.0000 0.0722 0.0000 ( 19991 PWs)   bands (ev):

   -24.1561 -24.1508 -24.1456 -24.0341 -24.0317 -23.8657 -23.8639 -23.8014
   -23.7987 -23.7400 -12.3072  -4.5463  -4.3587  -3.5312  -2.7859   0.5119

     occupation numbers 
     1.0000   1.0000   1.0000   1.0000   1.0000   1.0000   1.0000   1.0000
     1.0000   1.0000   1.0000   1.0000   1.0000   1.0000   1.0000   0.0000

          k = 0.0000 0.0962 0.0000 ( 19993 PWs)   bands (ev):

   -24.1618 -24.1580 -24.1464 -24.0348 -24.0305 -23.8590 -23.8560 -23.8027
   -23.7981 -23.7397 -12.2813  -4.8365  -4.3319  -3.5852  -2.5365   0.5001

     occupation numbers 
     1.0000   1.0000   1.0000   1.0000   1.0000   1.0000   1.0000   1.0000
     1.0000   1.0000   1.0000   1.0000   1.0000   1.0000   1.0757   0.0000

          k = 0.0000 0.1203 0.0000 ( 20003 PWs)   bands (ev):

   -24.1696 -24.1665 -24.1463 -24.0356 -24.0290 -23.8512 -23.8464 -23.8045
   -23.7973 -23.7391 -12.2480  -5.1270  -4.2975  -3.6502  -2.3067   0.5036

     occupation numbers 
     1.0000   1.0000   1.0000   1.0000   1.0000   1.0000   1.0000   1.0000
     1.0000   1.0000   1.0000   1.0000   1.0000   1.0000   0.0938   0.0000

          k = 0.0000 0.1443 0.0000 ( 20039 PWs)   bands (ev):

   -24.1788 -24.1760 -24.1457 -24.0365 -24.0272 -23.8428 -23.8357 -23.8066
   -23.7963 -23.7383 -12.2075  -5.4160  -4.2555  -3.7237  -2.1041   0.5325

     occupation numbers 
     1.0000   1.0000   1.0000   1.0000   1.0000   1.0000   1.0000   1.0000
     1.0000   1.0000   1.0000   1.0000   1.0000   1.0000   0.0000   0.0000

          k = 0.0000 0.1684 0.0000 ( 20063 PWs)   bands (ev):

   -24.1888 -24.1862 -24.1448 -24.0376 -24.0251 -23.8340 -23.8242 -23.8090
   -23.7952 -23.7371 -12.1596  -5.7024  -4.2062  -3.8032  -1.9360   0.5962

     occupation numbers 
     1.0000   1.0000   1.0000   1.0000   1.0000   1.0000   1.0000   1.0000
     1.0000   1.0000   1.0000   1.0000   1.0000   1.0000   0.0000   0.0000

          k = 0.0000 0.1925 0.0000 ( 20061 PWs)   bands (ev):

   -24.1993 -24.1968 -24.1438 -24.0388 -24.0226 -23.8254 -23.8122 -23.8117
   -23.7940 -23.7353 -12.1046  -5.9853  -4.1497  -3.8866  -1.8071   0.7012

     occupation numbers 
     1.0000   1.0000   1.0000   1.0000   1.0000   1.0000   1.0000   1.0000
     1.0000   1.0000   1.0000   1.0000   1.0000   1.0000   0.0000   0.0000

          k = 0.0000 0.2165 0.0000 ( 20053 PWs)   bands (ev):

   -24.2100 -24.2075 -24.1426 -24.0401 -24.0200 -23.8173 -23.8148 -23.7999
   -23.7928 -23.7329 -12.0425  -6.2638  -4.0860  -3.9718  -1.7184   0.8489

     occupation numbers 
     1.0000   1.0000   1.0000   1.0000   1.0000   1.0000   1.0000   1.0000
     1.0000   1.0000   1.0000   1.0000   1.0000   1.0000   0.0000   0.0000

          k = 0.0000 0.2406 0.0000 ( 20045 PWs)   bands (ev):

   -24.2207 -24.2181 -24.1413 -24.0414 -24.0171 -23.8180 -23.8101 -23.7915
   -23.7876 -23.7296 -11.9734  -6.5374  -4.0571  -4.0154  -1.6661   0.9208

     occupation numbers 
     1.0000   1.0000   1.0000   1.0000   1.0000   1.0000   1.0000   1.0000
     1.0000   1.0000   1.0000   1.0000   1.0000   1.0000   0.0000   0.0000

          k = 0.0000 0.2646 0.0000 ( 20051 PWs)   bands (ev):

   -24.2313 -24.2285 -24.1400 -24.0428 -24.0140 -23.8215 -23.8040 -23.7901
   -23.7755 -23.7253 -11.8976  -6.8054  -4.1410  -3.9381  -1.6436   0.7185

     occupation numbers 
     1.0000   1.0000   1.0000   1.0000   1.0000   1.0000   1.0000   1.0000
     1.0000   1.0000   1.0000   1.0000   1.0000   1.0000   0.0000   0.0000

          k = 0.0000 0.2887 0.0000 ( 20055 PWs)   bands (ev):

   -24.2415 -24.2385 -24.1386 -24.0442 -24.0107 -23.8252 -23.7991 -23.7887
   -23.7636 -23.7202 -11.8151  -7.0672  -4.2224  -3.8544  -1.6433   0.5144

     occupation numbers 
     1.0000   1.0000   1.0000   1.0000   1.0000   1.0000   1.0000   1.0000
     1.0000   1.0000   1.0000   1.0000   1.0000   1.0000   0.0000   0.0000

          k = 0.0000 0.3127 0.0000 ( 20077 PWs)   bands (ev):

   -24.2513 -24.2481 -24.1372 -24.0455 -24.0073 -23.8290 -23.7954 -23.7874
   -23.7523 -23.7144 -11.7264  -7.3221  -4.3002  -3.7648  -1.6582   0.3102

     occupation numbers 
     1.0000   1.0000   1.0000   1.0000   1.0000   1.0000   1.0000   1.0000
     1.0000   1.0000   1.0000   1.0000   1.0000   1.0000   0.0000   0.0000

          k = 0.0000 0.3368 0.0000 ( 20085 PWs)   bands (ev):

   -24.2606 -24.2571 -24.1358 -24.0468 -24.0038 -23.8329 -23.7928 -23.7861
   -23.7415 -23.7081 -11.6318  -7.5693  -4.3735  -3.6697  -1.6827   0.1077

     occupation numbers 
     1.0000   1.0000   1.0000   1.0000   1.0000   1.0000   1.0000   1.0000
     1.0000   1.0000   1.0000   1.0000   1.0000   1.0000   0.0000   0.0000

          k = 0.0000 0.3608 0.0000 ( 20097 PWs)   bands (ev):

   -24.2692 -24.2655 -24.1345 -24.0481 -24.0003 -23.8368 -23.7910 -23.7848
   -23.7315 -23.7016 -11.5319  -7.8082  -4.4416  -3.5697  -1.7126  -0.0917

     occupation numbers 
     1.0000   1.0000   1.0000   1.0000   1.0000   1.0000   1.0000   1.0000
     1.0000   1.0000   1.0000   1.0000   1.0000   1.0000   0.0000   0.0000

          k = 0.0000 0.3849 0.0000 ( 20131 PWs)   bands (ev):

   -24.2771 -24.2732 -24.1332 -24.0493 -23.9968 -23.8406 -23.7898 -23.7836
   -23.7223 -23.6951 -11.4275  -8.0375  -4.5039  -3.4657  -1.7447  -0.2863

     occupation numbers 
     1.0000   1.0000   1.0000   1.0000   1.0000   1.0000   1.0000   1.0000
     1.0000   1.0000   1.0000   1.0000   1.0000   1.0000   0.0000   0.0000

          k = 0.0000 0.4090 0.0000 ( 20115 PWs)   bands (ev):

   -24.2842 -24.2800 -24.1320 -24.0504 -23.9934 -23.8444 -23.7891 -23.7826
   -23.7139 -23.6890 -11.3197  -8.2560  -4.5599  -3.3589  -1.7767  -0.4743

     occupation numbers 
     1.0000   1.0000   1.0000   1.0000   1.0000   1.0000   1.0000   1.0000
     1.0000   1.0000   1.0000   1.0000   1.0000   1.0000   0.0000   0.0000

          k = 0.0000 0.4330 0.0000 ( 20143 PWs)   bands (ev):

   -24.2905 -24.2861 -24.1309 -24.0514 -23.9902 -23.8479 -23.7887 -23.7816
   -23.7065 -23.6834 -11.2102  -8.4619  -4.6092  -3.2510  -1.8068  -0.6536

     occupation numbers 
     1.0000   1.0000   1.0000   1.0000   1.0000   1.0000   1.0000   1.0000
     1.0000   1.0000   1.0000   1.0000   1.0000   1.0000   0.0000   0.0000

          k = 0.0000 0.4571 0.0000 ( 20141 PWs)   bands (ev):

   -24.2959 -24.2912 -24.1300 -24.0522 -23.9872 -23.8511 -23.7886 -23.7807
   -23.7002 -23.6784 -11.1012  -8.6526  -4.6514  -3.1444  -1.8339  -0.8212

     occupation numbers 
     1.0000   1.0000   1.0000   1.0000   1.0000   1.0000   1.0000   1.0000
     1.0000   1.0000   1.0000   1.0000   1.0000   1.0000   0.0000   0.0000

          k = 0.0000 0.4811 0.0000 ( 20129 PWs)   bands (ev):

   -24.3003 -24.2955 -24.1291 -24.0529 -23.9846 -23.8540 -23.7885 -23.7800
   -23.6949 -23.6741 -10.9965  -8.8245  -4.6863  -3.0425  -1.8571  -0.9734

     occupation numbers 
     1.0000   1.0000   1.0000   1.0000   1.0000   1.0000   1.0000   1.0000
     1.0000   1.0000   1.0000   1.0000   1.0000   1.0000   0.0000   0.0000

          k = 0.0000 0.5052 0.0000 ( 20125 PWs)   bands (ev):

   -24.3038 -24.2989 -24.1285 -24.0535 -23.9824 -23.8563 -23.7885 -23.7795
   -23.6908 -23.6708 -10.9012  -8.9721  -4.7137  -2.9505  -1.8757  -1.1048

     occupation numbers 
     1.0000   1.0000   1.0000   1.0000   1.0000   1.0000   1.0000   1.0000
     1.0000   1.0000   1.0000   1.0000   1.0000   1.0000   0.0000   0.0000

          k = 0.0000 0.5292 0.0000 ( 20120 PWs)   bands (ev):

   -24.3063 -24.3013 -24.1280 -24.0539 -23.9808 -23.8581 -23.7886 -23.7791
[...]
     1.0000   1.0000   1.0000   1.0000   1.0000   1.0000   0.0000   0.0000

          k = 0.1875 0.4210 0.0000 ( 20107 PWs)   bands (ev):

   -24.3474 -24.2227 -24.1501 -24.0575 -23.9746 -23.8633 -23.7760 -23.7750
   -23.7499 -23.6376 -11.0483  -8.6131  -5.3503  -3.0891  -0.7960  -0.1805

     occupation numbers 
     1.0000   1.0000   1.0000   1.0000   1.0000   1.0000   1.0000   1.0000
     1.0000   1.0000   1.0000   1.0000   1.0000   1.0000   0.0000   0.0000

          k = 0.1875 0.4450 0.0000 ( 20100 PWs)   bands (ev):

   -24.3537 -24.2243 -24.1500 -24.0586 -23.9702 -23.8679 -23.7758 -23.7749
   -23.7463 -23.6308 -10.9361  -8.7867  -5.4202  -2.9793  -0.9502  -0.1776

     occupation numbers 
     1.0000   1.0000   1.0000   1.0000   1.0000   1.0000   1.0000   1.0000
     1.0000   1.0000   1.0000   1.0000   1.0000   1.0000   0.0000   0.0000

          k = 0.1875 0.4691 0.0000 ( 20111 PWs)   bands (ev):

   -24.3591 -24.2258 -24.1498 -24.0596 -23.9661 -23.8722 -23.7765 -23.7741
   -23.7433 -23.6250 -10.8244  -8.9503  -5.4786  -2.8705  -1.0966  -0.1816

     occupation numbers 
     1.0000   1.0000   1.0000   1.0000   1.0000   1.0000   1.0000   1.0000
     1.0000   1.0000   1.0000   1.0000   1.0000   1.0000   0.0000   0.0000

          k = 0.1875 0.4932 0.0000 ( 20123 PWs)   bands (ev):

   -24.3635 -24.2270 -24.1496 -24.0603 -23.9624 -23.8761 -23.7772 -23.7733
   -23.7408 -23.6202 -10.7169  -9.0997  -5.5255  -2.7664  -1.2311  -0.1884

     occupation numbers 
     1.0000   1.0000   1.0000   1.0000   1.0000   1.0000   1.0000   1.0000
     1.0000   1.0000   1.0000   1.0000   1.0000   1.0000   0.0000   0.0000

          k = 0.1875 0.5172 0.0000 ( 20116 PWs)   bands (ev):

   -24.3668 -24.2280 -24.1494 -24.0609 -23.9593 -23.8793 -23.7777 -23.7728
   -23.7389 -23.6166 -10.6199  -9.2284  -5.5608  -2.6731  -1.3475  -0.1953

     occupation numbers 
     1.0000   1.0000   1.0000   1.0000   1.0000   1.0000   1.0000   1.0000
     1.0000   1.0000   1.0000   1.0000   1.0000   1.0000   0.0000   0.0000

          k = 0.1875 0.5413 0.0000 ( 20110 PWs)   bands (ev):

   -24.3690 -24.2286 -24.1492 -24.0613 -23.9571 -23.8816 -23.7780 -23.7724
   -23.7376 -23.6142 -10.5432  -9.3263  -5.5843  -2.5998  -1.4364  -0.2006

     occupation numbers 
     1.0000   1.0000   1.0000   1.0000   1.0000   1.0000   1.0000   1.0000
     1.0000   1.0000   1.0000   1.0000   1.0000   1.0000   0.0000   0.0000

          k = 0.1875 0.5653 0.0000 ( 20121 PWs)   bands (ev):

   -24.3701 -24.2290 -24.1492 -24.0615 -23.9559 -23.8828 -23.7782 -23.7722
   -23.7370 -23.6130 -10.4996  -9.3806  -5.5961  -2.5584  -1.4856  -0.2035

     occupation numbers 
     1.0000   1.0000   1.0000   1.0000   1.0000   1.0000   1.0000   1.0000
     1.0000   1.0000   1.0000   1.0000   1.0000   1.0000   0.0000   0.0000

          k = 0.2083 0.3608 0.0000 ( 20087 PWs)   bands (ev):

   -24.3321 -24.2176 -24.1509 -24.0550 -23.9836 -23.8538 -23.7784 -23.7717
   -23.7609 -23.6535 -11.2679  -8.2380  -5.1894  -3.3056  -0.4678  -0.1527

     occupation numbers 
     1.0000   1.0000   1.0000   1.0000   1.0000   1.0000   1.0000   1.0000
     1.0000   1.0000   1.0000   1.0000   1.0000   1.0000   0.0000   0.0000

          k = 0.2083 0.3849 0.0000 ( 20095 PWs)   bands (ev):

   -24.3408 -24.2181 -24.1517 -24.0564 -23.9789 -23.8588 -23.7771 -23.7718
   -23.7576 -23.6446 -11.1637  -8.4166  -5.2929  -3.2025  -0.6237  -0.0379

     occupation numbers 
     1.0000   1.0000   1.0000   1.0000   1.0000   1.0000   1.0000   1.0000
     1.0000   1.0000   1.0000   1.0000   1.0000   1.0000   0.0000   0.0000

          k = 0.2083 0.4090 0.0000 ( 20099 PWs)   bands (ev):

   -24.3486 -24.2186 -24.1524 -24.0578 -23.9741 -23.8638 -23.7758 -23.7724
   -23.7543 -23.6365 -11.0553  -8.5921  -5.3855  -3.0956  -0.7783   0.0343

     occupation numbers 
     1.0000   1.0000   1.0000   1.0000   1.0000   1.0000   1.0000   1.0000
     1.0000   1.0000   1.0000   1.0000   1.0000   1.0000   0.0000   0.0000

          k = 0.2083 0.4330 0.0000 ( 20106 PWs)   bands (ev):

   -24.3554 -24.2192 -24.1529 -24.0590 -23.9694 -23.8687 -23.7747 -23.7731
   -23.7512 -23.6292 -10.9436  -8.7629  -5.4665  -2.9862  -0.9301   0.0733

     occupation numbers 
     1.0000   1.0000   1.0000   1.0000   1.0000   1.0000   1.0000   1.0000
     1.0000   1.0000   1.0000   1.0000   1.0000   1.0000   0.0000   0.0000

          k = 0.2083 0.4571 0.0000 ( 20115 PWs)   bands (ev):

   -24.3613 -24.2198 -24.1532 -24.0600 -23.9648 -23.8735 -23.7739 -23.7737
   -23.7484 -23.6229 -10.8306  -8.9267  -5.5355  -2.8759  -1.0768   0.0909

     occupation numbers 
     1.0000   1.0000   1.0000   1.0000   1.0000   1.0000   1.0000   1.0000
     1.0000   1.0000   1.0000   1.0000   1.0000   1.0000   0.0000   0.0000

          k = 0.2083 0.4811 0.0000 ( 20114 PWs)   bands (ev):

   -24.3661 -24.2203 -24.1534 -24.0609 -23.9605 -23.8779 -23.7746 -23.7728
   -23.7461 -23.6176 -10.7190  -9.0804  -5.5923  -2.7676  -1.2154   0.0967

     occupation numbers 
     1.0000   1.0000   1.0000   1.0000   1.0000   1.0000   1.0000   1.0000
     1.0000   1.0000   1.0000   1.0000   1.0000   1.0000   0.0000   0.0000

          k = 0.2083 0.5052 0.0000 ( 20122 PWs)   bands (ev):

   -24.3700 -24.2208 -24.1536 -24.0616 -23.9567 -23.8818 -23.7752 -23.7722
   -23.7442 -23.6134 -10.6136  -9.2189  -5.6365  -2.6660  -1.3410   0.0967

     occupation numbers 
     1.0000   1.0000   1.0000   1.0000   1.0000   1.0000   1.0000   1.0000
     1.0000   1.0000   1.0000   1.0000   1.0000   1.0000   0.0000   0.0000

          k = 0.2083 0.5292 0.0000 ( 20112 PWs)   bands (ev):

   -24.3727 -24.2211 -24.1536 -24.0621 -23.9537 -23.8849 -23.7757 -23.7717
   -23.7428 -23.6104 -10.5223  -9.3341  -5.6682  -2.5784  -1.4458   0.0947

     occupation numbers 
     1.0000   1.0000   1.0000   1.0000   1.0000   1.0000   1.0000   1.0000
     1.0000   1.0000   1.0000   1.0000   1.0000   1.0000   0.0000   0.0000

          k = 0.2083 0.5533 0.0000 ( 20133 PWs)   bands (ev):

   -24.3744 -24.2213 -24.1537 -24.0624 -23.9517 -23.8869 -23.7760 -23.7714
   -23.7420 -23.6086 -10.4574  -9.4134  -5.6872  -2.5165  -1.5180   0.0927

     occupation numbers 
     1.0000   1.0000   1.0000   1.0000   1.0000   1.0000   1.0000   1.0000
     1.0000   1.0000   1.0000   1.0000   1.0000   1.0000   0.0000   0.0000

          k = 0.2083 0.5774 0.0000 ( 20121 PWs)   bands (ev):

   -24.3749 -24.2214 -24.1537 -24.0625 -23.9510 -23.8876 -23.7760 -23.7713
   -23.7417 -23.6080 -10.4334  -9.4422  -5.6936  -2.4937  -1.5443   0.0920

     occupation numbers 
     1.0000   1.0000   1.0000   1.0000   1.0000   1.0000   1.0000   1.0000
     1.0000   1.0000   1.0000   1.0000   1.0000   1.0000   0.0000   0.0000

          k = 0.2292 0.3969 0.0000 ( 20097 PWs)   bands (ev):

   -24.3490 -24.2172 -24.1532 -24.0578 -23.9739 -23.8640 -23.7757 -23.7711
   -23.7561 -23.6361 -11.0576  -8.5850  -5.3975  -3.0978  -0.7723   0.1268

     occupation numbers 
     1.0000   1.0000   1.0000   1.0000   1.0000   1.0000   1.0000   1.0000
     1.0000   1.0000   1.0000   1.0000   1.0000   1.0000   0.0000   0.0000

          k = 0.2292 0.4210 0.0000 ( 20111 PWs)   bands (ev):

   -24.3562 -24.2164 -24.1546 -24.0591 -23.9689 -23.8692 -23.7745 -23.7712
   -23.7542 -23.6284 -10.9474  -8.7506  -5.4903  -2.9897  -0.9197   0.2457

     occupation numbers 
     1.0000   1.0000   1.0000   1.0000   1.0000   1.0000   1.0000   1.0000
     1.0000   1.0000   1.0000   1.0000   1.0000   1.0000   0.0000   0.0000

          k = 0.2292 0.4450 0.0000 ( 20129 PWs)   bands (ev):

   -24.3626 -24.2157 -24.1557 -24.0603 -23.9640 -23.8743 -23.7734 -23.7716
   -23.7522 -23.6216 -10.8345  -8.9118  -5.5708  -2.8793  -1.0643   0.3195

     occupation numbers 
     1.0000   1.0000   1.0000   1.0000   1.0000   1.0000   1.0000   1.0000
     1.0000   1.0000   1.0000   1.0000   1.0000   1.0000   0.0000   0.0000

          k = 0.2292 0.4691 0.0000 ( 20129 PWs)   bands (ev):

   -24.3679 -24.2152 -24.1566 -24.0613 -23.9591 -23.8792 -23.7725 -23.7722
   -23.7503 -23.6158 -10.7208  -9.0663  -5.6384  -2.7687  -1.2039   0.3599

     occupation numbers 
     1.0000   1.0000   1.0000   1.0000   1.0000   1.0000   1.0000   1.0000
     1.0000   1.0000   1.0000   1.0000   1.0000   1.0000   0.0000   0.0000

          k = 0.2292 0.4932 0.0000 ( 20111 PWs)   bands (ev):

   -24.3723 -24.2148 -24.1574 -24.0621 -23.9547 -23.8838 -23.7727 -23.7717
   -23.7487 -23.6111 -10.6096  -9.2105  -5.6927  -2.6612  -1.3349   0.3798

     occupation numbers 
     1.0000   1.0000   1.0000   1.0000   1.0000   1.0000   1.0000   1.0000
     1.0000   1.0000   1.0000   1.0000   1.0000   1.0000   0.0000   0.0000

          k = 0.2292 0.5172 0.0000 ( 20119 PWs)   bands (ev):

   -24.3755 -24.2145 -24.1579 -24.0627 -23.9508 -23.8877 -23.7732 -23.7711
   -23.7475 -23.6075 -10.5068  -9.3383  -5.7336  -2.5623  -1.4516   0.3888

     occupation numbers 
     1.0000   1.0000   1.0000   1.0000   1.0000   1.0000   1.0000   1.0000
     1.0000   1.0000   1.0000   1.0000   1.0000   1.0000   0.0000   0.0000

          k = 0.2292 0.5413 0.0000 ( 20119 PWs)   bands (ev):

   -24.3777 -24.2143 -24.1583 -24.0631 -23.9479 -23.8907 -23.7735 -23.7707
   -23.7466 -23.6051 -10.4227  -9.4392  -5.7610  -2.4819  -1.5440   0.3923

     occupation numbers 
     1.0000   1.0000   1.0000   1.0000   1.0000   1.0000   1.0000   1.0000
     1.0000   1.0000   1.0000   1.0000   1.0000   1.0000   0.0000   0.0000

          k = 0.2292 0.5653 0.0000 ( 20107 PWs)   bands (ev):

   -24.3788 -24.2142 -24.1585 -24.0633 -23.9463 -23.8923 -23.7737 -23.7705
   -23.7462 -23.6039 -10.3731  -9.4972  -5.7747  -2.4348  -1.5971   0.3934

     occupation numbers 
     1.0000   1.0000   1.0000   1.0000   1.0000   1.0000   1.0000   1.0000
     1.0000   1.0000   1.0000   1.0000   1.0000   1.0464   0.0000   0.0000

          k = 0.2500 0.4330 0.0000 ( 20133 PWs)   bands (ev):

   -24.3630 -24.2143 -24.1566 -24.0604 -23.9637 -23.8746 -23.7733 -23.7706
   -23.7537 -23.6212 -10.8358  -8.9067  -5.5827  -2.8804  -1.0600   0.4200

     occupation numbers 
     1.0000   1.0000   1.0000   1.0000   1.0000   1.0000   1.0000   1.0000
     1.0000   1.0000   1.0000   1.0000   1.0000   1.0000   0.0000   0.0000

          k = 0.2500 0.4571 0.0000 ( 20133 PWs)   bands (ev):

   -24.3688 -24.2123 -24.1585 -24.0615 -23.9584 -23.8799 -23.7723 -23.7705
   -23.7530 -23.6150 -10.7217  -9.0588  -5.6619  -2.7693  -1.1978   0.5443

     occupation numbers 
     1.0000   1.0000   1.0000   1.0000   1.0000   1.0000   1.0000   1.0000
     1.0000   1.0000   1.0000   1.0000   1.0000   1.0000   0.0000   0.0000

          k = 0.2500 0.4811 0.0000 ( 20115 PWs)   bands (ev):

   -24.3737 -24.2106 -24.1602 -24.0624 -23.9534 -23.8851 -23.7714 -23.7706
   -23.7521 -23.6097 -10.6074  -9.2047  -5.7273  -2.6584  -1.3307   0.6205

     occupation numbers 
     1.0000   1.0000   1.0000   1.0000   1.0000   1.0000   1.0000   1.0000
     1.0000   1.0000   1.0000   1.0000   1.0000   1.0000   0.0000   0.0000

          k = 0.2500 0.5052 0.0000 ( 20121 PWs)   bands (ev):

   -24.3774 -24.2093 -24.1616 -24.0631 -23.9487 -23.8898 -23.7709 -23.7708
   -23.7513 -23.6056 -10.4966  -9.3402  -5.7785  -2.5516  -1.4549   0.6625

     occupation numbers 
     1.0000   1.0000   1.0000   1.0000   1.0000   1.0000   1.0000   1.0000
     1.0000   1.0000   1.0000   1.0000   1.0000   1.0000   0.0000   0.0000

          k = 0.2500 0.5292 0.0000 ( 20109 PWs)   bands (ev):

   -24.3802 -24.2082 -24.1626 -24.0636 -23.9448 -23.8938 -23.7711 -23.7703
   -23.7506 -23.6026 -10.3969  -9.4578  -5.8152  -2.4560  -1.5630   0.6839

     occupation numbers 
     1.0000   1.0000   1.0000   1.0000   1.0000   1.0000   1.0000   1.0000
     1.0000   1.0000   1.0000   1.0000   1.0000   1.0531   0.0000   0.0000

          k = 0.2500 0.5533 0.0000 ( 20101 PWs)   bands (ev):

   -24.3818 -24.2075 -24.1632 -24.0639 -23.9420 -23.8966 -23.7713 -23.7700
   -23.7502 -23.6008 -10.3221  -9.5433  -5.8373  -2.3847  -1.6418   0.6938

     occupation numbers 
     1.0000   1.0000   1.0000   1.0000   1.0000   1.0000   1.0000   1.0000
     1.0000   1.0000   1.0000   1.0000   1.0000   0.6711   0.0000   0.0000

          k = 0.2500 0.5774 0.0000 ( 20109 PWs)   bands (ev):

   -24.3823 -24.2073 -24.1635 -24.0640 -23.9410 -23.8976 -23.7713 -23.7699
   -23.7501 -23.6002 -10.2931  -9.5759  -5.8447  -2.3572  -1.6718   0.6966

     occupation numbers 
     1.0000   1.0000   1.0000   1.0000   1.0000   1.0000   1.0000   1.0000
     1.0000   1.0000   1.0000   1.0000   1.0000   0.2717   0.0000   0.0000

          k = 0.2708 0.4691 0.0000 ( 20107 PWs)   bands (ev):

   -24.3741 -24.2092 -24.1612 -24.0625 -23.9529 -23.8855 -23.7714 -23.7697
   -23.7534 -23.6093 -10.6067  -9.2027  -5.7390  -2.6576  -1.3292   0.7290

     occupation numbers 
     1.0000   1.0000   1.0000   1.0000   1.0000   1.0000   1.0000   1.0000
     1.0000   1.0000   1.0000   1.0000   1.0000   1.0000   0.0000   0.0000

          k = 0.2708 0.4932 0.0000 ( 20127 PWs)   bands (ev):

   -24.3784 -24.2063 -24.1637 -24.0633 -23.9476 -23.8910 -23.7706 -23.7693
   -23.7537 -23.6046 -10.4916  -9.3409  -5.8013  -2.5463  -1.4563   0.8591

     occupation numbers 
     1.0000   1.0000   1.0000   1.0000   1.0000   1.0000   1.0000   1.0000
     1.0000   1.0000   1.0000   1.0000   1.0000   1.0000   0.0000   0.0000

          k = 0.2708 0.5172 0.0000 ( 20098 PWs)   bands (ev):

   -24.3816 -24.2038 -24.1659 -24.0639 -23.9426 -23.8960 -23.7700 -23.7690
   -23.7537 -23.6011 -10.3809  -9.4690  -5.8484  -2.4399  -1.5746   0.9367

     occupation numbers 
     1.0000   1.0000   1.0000   1.0000   1.0000   1.0000   1.0000   1.0000
     1.0000   1.0000   1.0000   1.0000   1.0000   1.0144   0.0000   0.0000

          k = 0.2708 0.5413 0.0000 ( 20095 PWs)   bands (ev):

   -24.3838 -24.2020 -24.1675 -24.0644 -23.9385 -23.9001 -23.7696 -23.7690
   -23.7537 -23.5987 -10.2843  -9.5774  -5.8799  -2.3474  -1.6750   0.9771

     occupation numbers 
     1.0000   1.0000   1.0000   1.0000   1.0000   1.0000   1.0000   1.0000
     1.0000   1.0000   1.0000   1.0000   1.0000   0.1936   0.0000   0.0000

          k = 0.2708 0.5653 0.0000 ( 20102 PWs)   bands (ev):

   -24.3849 -24.2010 -24.1684 -24.0646 -23.9361 -23.9025 -23.7694 -23.7689
   -23.7537 -23.5976 -10.2222  -9.6453  -5.8958  -2.2883  -1.7381   0.9938

     occupation numbers 
     1.0000   1.0000   1.0000   1.0000   1.0000   1.0000   1.0000   1.0000
     1.0000   1.0000   1.0000   1.0000   1.0000  -0.0369   0.0000   0.0000

          k = 0.2917 0.5052 0.0000 ( 20105 PWs)   bands (ev):

   -24.3821 -24.2021 -24.1672 -24.0641 -23.9418 -23.8968 -23.7699 -23.7681
   -23.7549 -23.6006 -10.3755  -9.4728  -5.8596  -2.4344  -1.5785   1.0551

     occupation numbers 
     1.0000   1.0000   1.0000   1.0000   1.0000   1.0000   1.0000   1.0000
     1.0000   1.0000   1.0000   1.0000   1.0000   0.9834   0.0000   0.0000

          k = 0.2917 0.5292 0.0000 ( 20107 PWs)   bands (ev):

   -24.3848 -24.1985 -24.1704 -24.0646 -23.9365 -23.9021 -23.7694 -23.7673
   -23.7559 -23.5977 -10.2639  -9.5958  -5.9015  -2.3273  -1.6930   1.1896

     occupation numbers 
     1.0000   1.0000   1.0000   1.0000   1.0000   1.0000   1.0000   1.0000
     1.0000   1.0000   1.0000   1.0000   1.0000   0.0663   0.0000   0.0000

          k = 0.2917 0.5533 0.0000 ( 20115 PWs)   bands (ev):

   -24.3864 -24.1958 -24.1728 -24.0649 -23.9322 -23.9065 -23.7691 -23.7667
   -23.7566 -23.5960 -10.1694  -9.6969  -5.9269  -2.2371  -1.7875   1.2612

     occupation numbers 
     1.0000   1.0000   1.0000   1.0000   1.0000   1.0000   1.0000   1.0000
     1.0000   1.0000   1.0000   1.0000   1.0000   0.0000   0.0000   0.0000

          k = 0.2917 0.5774 0.0000 ( 20095 PWs)   bands (ev):

   -24.3869 -24.1948 -24.1737 -24.0650 -23.9304 -23.9083 -23.7690 -23.7665
   -23.7568 -23.5954 -10.1270  -9.7416  -5.9353  -2.1968  -1.8293   1.2827

     occupation numbers 
     1.0000   1.0000   1.0000   1.0000   1.0000   1.0000   1.0000   1.0000
     1.0000   1.0000   1.0000   1.0000   1.0000   0.0000   0.0000   0.0000

          k = 0.3125 0.5413 0.0000 ( 20113 PWs)   bands (ev):

   -24.3869 -24.1936 -24.1748 -24.0650 -23.9306 -23.9081 -23.7690 -23.7656
   -23.7579 -23.5954 -10.1490  -9.7169  -5.9373  -2.2172  -1.8068   1.3989

     occupation numbers 
     1.0000   1.0000   1.0000   1.0000   1.0000   1.0000   1.0000   1.0000
     1.0000   1.0000   1.0000   1.0000   1.0000   0.0000   0.0000   0.0000

          k = 0.3125 0.5653 0.0000 ( 20099 PWs)   bands (ev):

   -24.3879 -24.1898 -24.1782 -24.0653 -23.9258 -23.9129 -23.7687 -23.7644
   -23.7593 -23.5943 -10.0529  -9.8162  -5.9553  -2.1255  -1.9004   1.5265

     occupation numbers 
     1.0000   1.0000   1.0000   1.0000   1.0000   1.0000   1.0000   1.0000
     1.0000   1.0000   1.0000   1.0000   1.0000   0.0000   0.0000   0.0000

          k = 0.3333 0.5774 0.0000 ( 20085 PWs)   bands (ev):

   -24.3885 -24.1839 -24.1839 -24.0654 -23.9193 -23.9193 -23.7686 -23.7619
   -23.7619 -23.5937  -9.9350  -9.9350  -5.9648  -2.0131  -2.0131   1.7601

     occupation numbers 
     1.0000   1.0000   1.0000   1.0000   1.0000   1.0000   1.0000   1.0000
     1.0000   1.0000   1.0000   1.0000   1.0000   0.0000   0.0000   0.0000

     the Fermi energy is    -2.3757 ev
     (compare with:    -2.3731 eV, computed in scf)

     Writing all to output data dir ../tmp/stanene.save/

     init_run     :      3.38s CPU      4.97s WALL (       1 calls)
     electrons    :   4944.38s CPU   7261.85s WALL (       1 calls)

     Called by init_run:
     wfcinit      :      0.00s CPU      0.00s WALL (       1 calls)
     wfcinit:atom :      0.31s CPU      0.27s WALL (     217 calls)
     wfcinit:wfcr :    131.67s CPU    194.58s WALL (     217 calls)
     potinit      :      0.26s CPU      0.31s WALL (       1 calls)
     hinit0       :      0.45s CPU      0.47s WALL (       1 calls)

     Called by electrons:
     c_bands      :   4944.22s CPU   7261.72s WALL (       1 calls)
     v_of_rho     :      0.09s CPU      0.12s WALL (       1 calls)
     v_h          :      0.01s CPU      0.01s WALL (       1 calls)
     v_xc         :      0.08s CPU      0.11s WALL (       1 calls)
     newd         :      2.49s CPU      3.97s WALL (       1 calls)

     Called by c_bands:
     init_us_2    :      0.39s CPU      0.38s WALL (     217 calls)
     init_us_2:cp :      0.39s CPU      0.38s WALL (     217 calls)
     cegterg      :   4787.43s CPU   7037.88s WALL (     487 calls)

     Called by sum_band:

     Called by *egterg:
     cdiaghg      :    288.45s CPU    510.94s WALL (    7613 calls)
     cegterg:over :   1542.23s CPU   2205.77s WALL (    7396 calls)
     cegterg:upda :    152.90s CPU    272.59s WALL (    7396 calls)
     cegterg:last :    196.34s CPU    356.75s WALL (    4803 calls)
     h_psi        :   1969.97s CPU   2932.97s WALL (    8100 calls)
     s_psi        :     74.33s CPU    128.88s WALL (    8100 calls)
     g_psi        :      1.38s CPU      1.26s WALL (    7396 calls)

     Called by h_psi:
     h_psi:calbec :   1235.00s CPU   1988.02s WALL (    8100 calls)
     vloc_psi     :    515.15s CPU    477.22s WALL (    8100 calls)
     add_vuspsi   :    218.25s CPU    465.03s WALL (    8100 calls)

     General routines
     calbec       :   1234.92s CPU   1986.63s WALL (    8100 calls)
     fft          :      0.30s CPU      0.33s WALL (      13 calls)
     ffts         :      0.15s CPU      0.15s WALL (       1 calls)
     fftw         :    471.73s CPU    425.43s WALL (  166442 calls)
     interpolate  :      0.15s CPU      0.16s WALL (       1 calls)
     davcio       :      0.48s CPU      1.02s WALL (     434 calls)

     Parallel routines

     PWSCF        :      1h22m CPU      2h 1m WALL


   This run was terminated on:  13:35:10  21Jun2024            

=------------------------------------------------------------------------------=
   JOB DONE.
=------------------------------------------------------------------------------=
