
     Program PWSCF v.7.2 starts on 21Jun2024 at  9:42: 2 

     This program is part of the open-source Quantum ESPRESSO suite
     for quantum simulation of materials; please cite
         "P. Giannozzi et al., J. Phys.:Condens. Matter 21 395502 (2009);
         "P. Giannozzi et al., J. Phys.:Condens. Matter 29 465901 (2017);
         "P. Giannozzi et al., J. Chem. Phys. 152 154105 (2020);
          URL http://www.quantum-espresso.org", 
     in publications or presentations arising from this work. More details at
     http://www.quantum-espresso.org/quote

     Parallel version (MPI), running on     6 processors

     MPI processes distributed on     1 nodes
     6285 MiB available memory on the printing compute node when the environment starts

     Waiting for input...
     Reading input from standard input

     Current dimensions of program PWSCF are:
     Max number of different atomic species (ntypx) = 10
     Max number of k-points (npk) =  40000
     Max angular momentum in pseudopotentials (lmaxx) =  4

     R & G space division:  proc/nbgrp/npool/nimage =       6
     Subspace diagonalization in iterative solution of the eigenvalue problem:
     a serial algorithm will be used


     Parallelization info
     --------------------
     sticks:   dense  smooth     PW     G-vecs:    dense   smooth      PW
     Min         431     214     61                75773    26776    4007
     Max         432     215     62                75788    26799    4017
     Sum        2587    1285    367               454685   160699   24069

     Using Slab Decomposition



     bravais-lattice index     =            4
     lattice parameter (alat)  =       8.8439  a.u.
     unit-cell volume          =    2560.0529 (a.u.)^3
     number of atoms/cell      =            2
     number of atomic types    =            1
     number of electrons       =        28.00
     number of Kohn-Sham states=           18
     kinetic-energy cutoff     =      60.0000  Ry
     charge density cutoff     =     480.0000  Ry
     scf convergence threshold =      1.0E-07
     mixing beta               =       0.7000
     number of iterations used =            8  plain     mixing
     Exchange-correlation= SLA  PW   PSX  PSC
                           (   1   4  10   8   0   0   0)

     celldm(1)=   8.843918  celldm(2)=   0.000000  celldm(3)=   4.273504
     celldm(4)=   0.000000  celldm(5)=   0.000000  celldm(6)=   0.000000

     crystal axes: (cart. coord. in units of alat)
               a(1) = (   1.000000   0.000000   0.000000 )  
               a(2) = (  -0.500000   0.866025   0.000000 )  
               a(3) = (   0.000000   0.000000   4.273504 )  

     reciprocal axes: (cart. coord. in units 2 pi/alat)
               b(1) = (  1.000000  0.577350 -0.000000 )  
               b(2) = (  0.000000  1.154701  0.000000 )  
               b(3) = (  0.000000 -0.000000  0.234000 )  


     PseudoPot. # 1 for Sn read from file:
     ../pseudo/sn_pbesol_v1.4.uspp.F.UPF
     MD5 check sum: 463fec1d5456f1e96ec1bfcad4b7b038
     Pseudo is Ultrasoft + core correction, Zval = 14.0
     Generated by new atomic code, or converted to UPF format
     Using radial grid of  891 points,  6 beta functions with: 
                l(1) =   0
                l(2) =   0
                l(3) =   1
                l(4) =   1
                l(5) =   2
                l(6) =   2
     Q(r) pseudized with  8 coefficients,  rinner =    1.350   1.350   1.350
                                                       1.350   1.350

     atomic species   valence    mass     pseudopotential
        Sn            14.00   118.71000     Sn( 1.00)

     24 Sym. Ops., with inversion, found


                                    s                        frac. trans.

      isym =  1     identity                                     

 cryst.   s( 1) = (     1          0          0      )
                  (     0          1          0      )
                  (     0          0          1      )

 cart.    s( 1) = (  1.0000000  0.0000000  0.0000000 )
                  (  0.0000000  1.0000000  0.0000000 )
                  (  0.0000000  0.0000000  1.0000000 )


      isym =  2     180 deg rotation - cart. axis [0,0,1]        

 cryst.   s( 2) = (    -1          0          0      )
                  (     0         -1          0      )
                  (     0          0          1      )

 cart.    s( 2) = ( -1.0000000  0.0000000  0.0000000 )
                  (  0.0000000 -1.0000000  0.0000000 )
                  (  0.0000000  0.0000000  1.0000000 )


      isym =  3     180 deg rotation - cart. axis [0,1,0]        

 cryst.   s( 3) = (    -1          0          0      )
                  (     1          1          0      )
                  (     0          0         -1      )

 cart.    s( 3) = ( -1.0000000  0.0000000  0.0000000 )
                  (  0.0000000  1.0000000  0.0000000 )
                  (  0.0000000  0.0000000 -1.0000000 )


      isym =  4     180 deg rotation - cart. axis [1,0,0]        

 cryst.   s( 4) = (     1          0          0      )
                  (    -1         -1          0      )
                  (     0          0         -1      )

 cart.    s( 4) = (  1.0000000  0.0000000  0.0000000 )
                  (  0.0000000 -1.0000000  0.0000000 )
                  (  0.0000000  0.0000000 -1.0000000 )


      isym =  5      60 deg rotation - cryst. axis [0,0,1]       

 cryst.   s( 5) = (     1          1          0      )
                  (    -1          0          0      )
                  (     0          0          1      )

 cart.    s( 5) = (  0.5000000 -0.8660254  0.0000000 )
                  (  0.8660254  0.5000000  0.0000000 )
                  (  0.0000000  0.0000000  1.0000000 )


      isym =  6      60 deg rotation - cryst. axis [0,0,-1]      

 cryst.   s( 6) = (     0         -1          0      )
                  (     1          1          0      )
                  (     0          0          1      )

 cart.    s( 6) = (  0.5000000  0.8660254  0.0000000 )
                  ( -0.8660254  0.5000000  0.0000000 )
                  (  0.0000000  0.0000000  1.0000000 )


      isym =  7     120 deg rotation - cryst. axis [0,0,1]       

 cryst.   s( 7) = (     0          1          0      )
                  (    -1         -1          0      )
                  (     0          0          1      )

 cart.    s( 7) = ( -0.5000000 -0.8660254  0.0000000 )
                  (  0.8660254 -0.5000000  0.0000000 )
                  (  0.0000000  0.0000000  1.0000000 )


      isym =  8     120 deg rotation - cryst. axis [0,0,-1]      

 cryst.   s( 8) = (    -1         -1          0      )
                  (     1          0          0      )
                  (     0          0          1      )

 cart.    s( 8) = ( -0.5000000  0.8660254  0.0000000 )
                  ( -0.8660254 -0.5000000  0.0000000 )
                  (  0.0000000  0.0000000  1.0000000 )


      isym =  9     180 deg rotation - cryst. axis [1,-1,0]      

 cryst.   s( 9) = (     0         -1          0      )
                  (    -1          0          0      )
                  (     0          0         -1      )

 cart.    s( 9) = (  0.5000000 -0.8660254  0.0000000 )
                  ( -0.8660254 -0.5000000  0.0000000 )
                  (  0.0000000  0.0000000 -1.0000000 )


      isym = 10     180 deg rotation - cryst. axis [2,1,0]       

 cryst.   s(10) = (     1          1          0      )
                  (     0         -1          0      )
                  (     0          0         -1      )

 cart.    s(10) = (  0.5000000  0.8660254  0.0000000 )
                  (  0.8660254 -0.5000000  0.0000000 )
                  (  0.0000000  0.0000000 -1.0000000 )


      isym = 11     180 deg rotation - cryst. axis [0,1,0]       

 cryst.   s(11) = (    -1         -1          0      )
                  (     0          1          0      )
                  (     0          0         -1      )

 cart.    s(11) = ( -0.5000000 -0.8660254  0.0000000 )
                  ( -0.8660254  0.5000000  0.0000000 )
                  (  0.0000000  0.0000000 -1.0000000 )


      isym = 12     180 deg rotation - cryst. axis [1,1,0]       

 cryst.   s(12) = (     0          1          0      )
                  (     1          0          0      )
                  (     0          0         -1      )

 cart.    s(12) = ( -0.5000000  0.8660254  0.0000000 )
                  (  0.8660254  0.5000000  0.0000000 )
                  (  0.0000000  0.0000000 -1.0000000 )


      isym = 13     inversion                                    

 cryst.   s(13) = (    -1          0          0      )
                  (     0         -1          0      )
                  (     0          0         -1      )

 cart.    s(13) = ( -1.0000000  0.0000000  0.0000000 )
                  (  0.0000000 -1.0000000  0.0000000 )
                  (  0.0000000  0.0000000 -1.0000000 )


      isym = 14     inv. 180 deg rotation - cart. axis [0,0,1]   

 cryst.   s(14) = (     1          0          0      )
                  (     0          1          0      )
                  (     0          0         -1      )

 cart.    s(14) = (  1.0000000  0.0000000  0.0000000 )
                  (  0.0000000  1.0000000  0.0000000 )
                  (  0.0000000  0.0000000 -1.0000000 )


      isym = 15     inv. 180 deg rotation - cart. axis [0,1,0]   

 cryst.   s(15) = (     1          0          0      )
                  (    -1         -1          0      )
                  (     0          0          1      )

 cart.    s(15) = (  1.0000000  0.0000000  0.0000000 )
                  (  0.0000000 -1.0000000  0.0000000 )
                  (  0.0000000  0.0000000  1.0000000 )


      isym = 16     inv. 180 deg rotation - cart. axis [1,0,0]   

 cryst.   s(16) = (    -1          0          0      )
                  (     1          1          0      )
                  (     0          0          1      )

 cart.    s(16) = ( -1.0000000  0.0000000  0.0000000 )
                  (  0.0000000  1.0000000  0.0000000 )
                  (  0.0000000  0.0000000  1.0000000 )


      isym = 17     inv.  60 deg rotation - cryst. axis [0,0,1]  

 cryst.   s(17) = (    -1         -1          0      )
                  (     1          0          0      )
                  (     0          0         -1      )

 cart.    s(17) = ( -0.5000000  0.8660254  0.0000000 )
                  ( -0.8660254 -0.5000000  0.0000000 )
                  (  0.0000000  0.0000000 -1.0000000 )


      isym = 18     inv.  60 deg rotation - cryst. axis [0,0,-1] 

 cryst.   s(18) = (     0          1          0      )
                  (    -1         -1          0      )
                  (     0          0         -1      )

 cart.    s(18) = ( -0.5000000 -0.8660254  0.0000000 )
                  (  0.8660254 -0.5000000  0.0000000 )
                  (  0.0000000  0.0000000 -1.0000000 )


      isym = 19     inv. 120 deg rotation - cryst. axis [0,0,1]  

 cryst.   s(19) = (     0         -1          0      )
                  (     1          1          0      )
                  (     0          0         -1      )

 cart.    s(19) = (  0.5000000  0.8660254  0.0000000 )
                  ( -0.8660254  0.5000000  0.0000000 )
                  (  0.0000000  0.0000000 -1.0000000 )


      isym = 20     inv. 120 deg rotation - cryst. axis [0,0,-1] 

 cryst.   s(20) = (     1          1          0      )
                  (    -1          0          0      )
                  (     0          0         -1      )

 cart.    s(20) = (  0.5000000 -0.8660254  0.0000000 )
                  (  0.8660254  0.5000000  0.0000000 )
                  (  0.0000000  0.0000000 -1.0000000 )


      isym = 21     inv. 180 deg rotation - cryst. axis [1,-1,0] 

 cryst.   s(21) = (     0          1          0      )
                  (     1          0          0      )
                  (     0          0          1      )

 cart.    s(21) = ( -0.5000000  0.8660254  0.0000000 )
                  (  0.8660254  0.5000000  0.0000000 )
                  (  0.0000000  0.0000000  1.0000000 )


      isym = 22     inv. 180 deg rotation - cryst. axis [2,1,0]  

 cryst.   s(22) = (    -1         -1          0      )
                  (     0          1          0      )
                  (     0          0          1      )

 cart.    s(22) = ( -0.5000000 -0.8660254  0.0000000 )
                  ( -0.8660254  0.5000000  0.0000000 )
                  (  0.0000000  0.0000000  1.0000000 )


      isym = 23     inv. 180 deg rotation - cryst. axis [0,1,0]  

 cryst.   s(23) = (     1          1          0      )
                  (     0         -1          0      )
                  (     0          0          1      )

 cart.    s(23) = (  0.5000000  0.8660254  0.0000000 )
                  (  0.8660254 -0.5000000  0.0000000 )
                  (  0.0000000  0.0000000  1.0000000 )


      isym = 24     inv. 180 deg rotation - cryst. axis [1,1,0]  

 cryst.   s(24) = (     0         -1          0      )
                  (    -1          0          0      )
                  (     0          0          1      )

 cart.    s(24) = (  0.5000000 -0.8660254  0.0000000 )
                  ( -0.8660254 -0.5000000  0.0000000 )
                  (  0.0000000  0.0000000  1.0000000 )


     point group D_6h(6/mmm)
     there are 12 classes
     the character table:

       E     2C6   2C3   C2    3C2'  3C2'' i     2S3   2S6   s_h   3s_d  3s_v 
A_1g   1.00  1.00  1.00  1.00  1.00  1.00  1.00  1.00  1.00  1.00  1.00  1.00
A_2g   1.00  1.00  1.00  1.00 -1.00 -1.00  1.00  1.00  1.00  1.00 -1.00 -1.00
B_1g   1.00 -1.00  1.00 -1.00  1.00 -1.00  1.00 -1.00  1.00 -1.00  1.00 -1.00
B_2g   1.00 -1.00  1.00 -1.00 -1.00  1.00  1.00 -1.00  1.00 -1.00 -1.00  1.00
E_1g   2.00  1.00 -1.00 -2.00  0.00  0.00  2.00  1.00 -1.00 -2.00  0.00  0.00
E_2g   2.00 -1.00 -1.00  2.00  0.00  0.00  2.00 -1.00 -1.00  2.00  0.00  0.00
A_1u   1.00  1.00  1.00  1.00  1.00  1.00 -1.00 -1.00 -1.00 -1.00 -1.00 -1.00
A_2u   1.00  1.00  1.00  1.00 -1.00 -1.00 -1.00 -1.00 -1.00 -1.00  1.00  1.00
B_1u   1.00 -1.00  1.00 -1.00  1.00 -1.00 -1.00  1.00 -1.00  1.00 -1.00  1.00
B_2u   1.00 -1.00  1.00 -1.00 -1.00  1.00 -1.00  1.00 -1.00  1.00  1.00 -1.00
E_1u   2.00  1.00 -1.00 -2.00  0.00  0.00 -2.00 -1.00  1.00  2.00  0.00  0.00
E_2u   2.00 -1.00 -1.00  2.00  0.00  0.00 -2.00  1.00  1.00 -2.00  0.00  0.00

     the symmetry operations in each class and the name of the first element:

     E        1
          identity                                               
     2C6      5    6
           60 deg rotation - cryst. axis [0,0,1]                 
     2C3      7    8
          120 deg rotation - cryst. axis [0,0,1]                 
     C2       2
          180 deg rotation - cart. axis [0,0,1]                  
     3C2'     4   12   11
          180 deg rotation - cart. axis [1,0,0]                  
     3C2''    3    9   10
          180 deg rotation - cart. axis [0,1,0]                  
     i       13
          inversion                                              
     2S3     17   18
          inv.  60 deg rotation - cryst. axis [0,0,1]            
     2S6     19   20
          inv. 120 deg rotation - cryst. axis [0,0,1]            
     s_h     14
          inv. 180 deg rotation - cart. axis [0,0,1]             
     3s_d    16   24   23
          inv. 180 deg rotation - cart. axis [1,0,0]             
     3s_v    15   21   22
          inv. 180 deg rotation - cart. axis [0,1,0]             

   Cartesian axes

     site n.     atom                  positions (alat units)
         1           Sn  tau(   1) = (   0.0000000   0.5773503   2.1367521  )
         2           Sn  tau(   2) = (   0.5000000   0.2886751   2.1367521  )

   Crystallographic axes

     site n.     atom                  positions (cryst. coord.)
         1           Sn  tau(   1) = (  0.3333333  0.6666667  0.5000000  )
         2           Sn  tau(   2) = (  0.6666667  0.3333333  0.5000000  )

     number of k points=    61  Methfessel-Paxton smearing, width (Ry)=  0.0200
                       cart. coord. in units 2pi/alat
        k(    1) = (   0.0000000   0.0000000   0.0000000), wk =   0.0034722
        k(    2) = (   0.0000000   0.0481125   0.0000000), wk =   0.0208333
        k(    3) = (   0.0000000   0.0962250   0.0000000), wk =   0.0208333
        k(    4) = (   0.0000000   0.1443376   0.0000000), wk =   0.0208333
        k(    5) = (   0.0000000   0.1924501   0.0000000), wk =   0.0208333
        k(    6) = (   0.0000000   0.2405626   0.0000000), wk =   0.0208333
        k(    7) = (   0.0000000   0.2886751   0.0000000), wk =   0.0208333
        k(    8) = (   0.0000000   0.3367877   0.0000000), wk =   0.0208333
        k(    9) = (   0.0000000   0.3849002   0.0000000), wk =   0.0208333
        k(   10) = (   0.0000000   0.4330127   0.0000000), wk =   0.0208333
        k(   11) = (   0.0000000   0.4811252   0.0000000), wk =   0.0208333
        k(   12) = (   0.0000000   0.5292377   0.0000000), wk =   0.0208333
        k(   13) = (   0.0000000  -0.5773503   0.0000000), wk =   0.0104167
        k(   14) = (   0.0416667   0.0721688   0.0000000), wk =   0.0208333
        k(   15) = (   0.0416667   0.1202813   0.0000000), wk =   0.0416667
        k(   16) = (   0.0416667   0.1683938   0.0000000), wk =   0.0416667
        k(   17) = (   0.0416667   0.2165064   0.0000000), wk =   0.0416667
        k(   18) = (   0.0416667   0.2646189   0.0000000), wk =   0.0416667
        k(   19) = (   0.0416667   0.3127314   0.0000000), wk =   0.0416667
        k(   20) = (   0.0416667   0.3608439   0.0000000), wk =   0.0416667
        k(   21) = (   0.0416667   0.4089564   0.0000000), wk =   0.0416667
        k(   22) = (   0.0416667   0.4570690   0.0000000), wk =   0.0416667
        k(   23) = (   0.0416667   0.5051815   0.0000000), wk =   0.0416667
        k(   24) = (   0.0416667   0.5532940   0.0000000), wk =   0.0416667
        k(   25) = (   0.0833333   0.1443376   0.0000000), wk =   0.0208333
        k(   26) = (   0.0833333   0.1924501   0.0000000), wk =   0.0416667
        k(   27) = (   0.0833333   0.2405626   0.0000000), wk =   0.0416667
        k(   28) = (   0.0833333   0.2886751   0.0000000), wk =   0.0416667
        k(   29) = (   0.0833333   0.3367877   0.0000000), wk =   0.0416667
        k(   30) = (   0.0833333   0.3849002   0.0000000), wk =   0.0416667
        k(   31) = (   0.0833333   0.4330127   0.0000000), wk =   0.0416667
        k(   32) = (   0.0833333   0.4811252   0.0000000), wk =   0.0416667
        k(   33) = (   0.0833333   0.5292377   0.0000000), wk =   0.0416667
        k(   34) = (   0.0833333   0.5773503   0.0000000), wk =   0.0208333
        k(   35) = (   0.1250000   0.2165064   0.0000000), wk =   0.0208333
        k(   36) = (   0.1250000   0.2646189   0.0000000), wk =   0.0416667
        k(   37) = (   0.1250000   0.3127314   0.0000000), wk =   0.0416667
        k(   38) = (   0.1250000   0.3608439   0.0000000), wk =   0.0416667
        k(   39) = (   0.1250000   0.4089564   0.0000000), wk =   0.0416667
        k(   40) = (   0.1250000   0.4570690   0.0000000), wk =   0.0416667
        k(   41) = (   0.1250000   0.5051815   0.0000000), wk =   0.0416667
        k(   42) = (   0.1250000   0.5532940   0.0000000), wk =   0.0416667
        k(   43) = (   0.1666667   0.2886751   0.0000000), wk =   0.0208333
        k(   44) = (   0.1666667   0.3367877   0.0000000), wk =   0.0416667
        k(   45) = (   0.1666667   0.3849002   0.0000000), wk =   0.0416667
        k(   46) = (   0.1666667   0.4330127   0.0000000), wk =   0.0416667
        k(   47) = (   0.1666667   0.4811252   0.0000000), wk =   0.0416667
        k(   48) = (   0.1666667   0.5292377   0.0000000), wk =   0.0416667
        k(   49) = (   0.1666667   0.5773503   0.0000000), wk =   0.0208333
        k(   50) = (   0.2083333   0.3608439   0.0000000), wk =   0.0208333
        k(   51) = (   0.2083333   0.4089564   0.0000000), wk =   0.0416667
        k(   52) = (   0.2083333   0.4570690   0.0000000), wk =   0.0416667
        k(   53) = (   0.2083333   0.5051815   0.0000000), wk =   0.0416667
        k(   54) = (   0.2083333   0.5532940   0.0000000), wk =   0.0416667
        k(   55) = (   0.2500000   0.4330127   0.0000000), wk =   0.0208333
        k(   56) = (   0.2500000   0.4811252   0.0000000), wk =   0.0416667
        k(   57) = (   0.2500000   0.5292377   0.0000000), wk =   0.0416667
        k(   58) = (   0.2500000   0.5773503   0.0000000), wk =   0.0208333
        k(   59) = (   0.2916667   0.5051815   0.0000000), wk =   0.0208333
        k(   60) = (   0.2916667   0.5532940   0.0000000), wk =   0.0416667
        k(   61) = (   0.3333333   0.5773503   0.0000000), wk =   0.0069444

                       cryst. coord.
        k(    1) = (   0.0000000   0.0000000   0.0000000), wk =   0.0034722
        k(    2) = (   0.0000000   0.0416667   0.0000000), wk =   0.0208333
        k(    3) = (   0.0000000   0.0833333   0.0000000), wk =   0.0208333
        k(    4) = (   0.0000000   0.1250000   0.0000000), wk =   0.0208333
        k(    5) = (   0.0000000   0.1666667   0.0000000), wk =   0.0208333
        k(    6) = (   0.0000000   0.2083333   0.0000000), wk =   0.0208333
        k(    7) = (   0.0000000   0.2500000   0.0000000), wk =   0.0208333
        k(    8) = (   0.0000000   0.2916667   0.0000000), wk =   0.0208333
        k(    9) = (   0.0000000   0.3333333   0.0000000), wk =   0.0208333
        k(   10) = (   0.0000000   0.3750000   0.0000000), wk =   0.0208333
        k(   11) = (   0.0000000   0.4166667   0.0000000), wk =   0.0208333
        k(   12) = (   0.0000000   0.4583333   0.0000000), wk =   0.0208333
        k(   13) = (   0.0000000  -0.5000000   0.0000000), wk =   0.0104167
        k(   14) = (   0.0416667   0.0416667   0.0000000), wk =   0.0208333
        k(   15) = (   0.0416667   0.0833333   0.0000000), wk =   0.0416667
        k(   16) = (   0.0416667   0.1250000   0.0000000), wk =   0.0416667
        k(   17) = (   0.0416667   0.1666667   0.0000000), wk =   0.0416667
        k(   18) = (   0.0416667   0.2083333   0.0000000), wk =   0.0416667
        k(   19) = (   0.0416667   0.2500000   0.0000000), wk =   0.0416667
        k(   20) = (   0.0416667   0.2916667   0.0000000), wk =   0.0416667
        k(   21) = (   0.0416667   0.3333333   0.0000000), wk =   0.0416667
        k(   22) = (   0.0416667   0.3750000   0.0000000), wk =   0.0416667
        k(   23) = (   0.0416667   0.4166667   0.0000000), wk =   0.0416667
        k(   24) = (   0.0416667   0.4583333   0.0000000), wk =   0.0416667
        k(   25) = (   0.0833333   0.0833333   0.0000000), wk =   0.0208333
        k(   26) = (   0.0833333   0.1250000   0.0000000), wk =   0.0416667
        k(   27) = (   0.0833333   0.1666667   0.0000000), wk =   0.0416667
        k(   28) = (   0.0833333   0.2083333   0.0000000), wk =   0.0416667
        k(   29) = (   0.0833333   0.2500000   0.0000000), wk =   0.0416667
        k(   30) = (   0.0833333   0.2916667   0.0000000), wk =   0.0416667
        k(   31) = (   0.0833333   0.3333333   0.0000000), wk =   0.0416667
        k(   32) = (   0.0833333   0.3750000   0.0000000), wk =   0.0416667
        k(   33) = (   0.0833333   0.4166667   0.0000000), wk =   0.0416667
        k(   34) = (   0.0833333   0.4583333   0.0000000), wk =   0.0208333
        k(   35) = (   0.1250000   0.1250000   0.0000000), wk =   0.0208333
        k(   36) = (   0.1250000   0.1666667   0.0000000), wk =   0.0416667
        k(   37) = (   0.1250000   0.2083333   0.0000000), wk =   0.0416667
        k(   38) = (   0.1250000   0.2500000   0.0000000), wk =   0.0416667
        k(   39) = (   0.1250000   0.2916667   0.0000000), wk =   0.0416667
        k(   40) = (   0.1250000   0.3333333   0.0000000), wk =   0.0416667
        k(   41) = (   0.1250000   0.3750000   0.0000000), wk =   0.0416667
        k(   42) = (   0.1250000   0.4166667   0.0000000), wk =   0.0416667
        k(   43) = (   0.1666667   0.1666667   0.0000000), wk =   0.0208333
        k(   44) = (   0.1666667   0.2083333   0.0000000), wk =   0.0416667
        k(   45) = (   0.1666667   0.2500000   0.0000000), wk =   0.0416667
        k(   46) = (   0.1666667   0.2916667   0.0000000), wk =   0.0416667
        k(   47) = (   0.1666667   0.3333333   0.0000000), wk =   0.0416667
        k(   48) = (   0.1666667   0.3750000   0.0000000), wk =   0.0416667
        k(   49) = (   0.1666667   0.4166667   0.0000000), wk =   0.0208333
        k(   50) = (   0.2083333   0.2083333   0.0000000), wk =   0.0208333
        k(   51) = (   0.2083333   0.2500000   0.0000000), wk =   0.0416667
        k(   52) = (   0.2083333   0.2916667   0.0000000), wk =   0.0416667
        k(   53) = (   0.2083333   0.3333333   0.0000000), wk =   0.0416667
        k(   54) = (   0.2083333   0.3750000   0.0000000), wk =   0.0416667
        k(   55) = (   0.2500000   0.2500000   0.0000000), wk =   0.0208333
        k(   56) = (   0.2500000   0.2916667   0.0000000), wk =   0.0416667
        k(   57) = (   0.2500000   0.3333333   0.0000000), wk =   0.0416667
        k(   58) = (   0.2500000   0.3750000   0.0000000), wk =   0.0208333
        k(   59) = (   0.2916667   0.2916667   0.0000000), wk =   0.0208333
        k(   60) = (   0.2916667   0.3333333   0.0000000), wk =   0.0416667
        k(   61) = (   0.3333333   0.3333333   0.0000000), wk =   0.0069444

     Dense  grid:   454685 G-vectors     FFT dimensions: (  64,  64, 270)

     Smooth grid:   160699 G-vectors     FFT dimensions: (  45,  45, 192)

     Dynamical RAM for                 wfc:       0.92 MB

     Dynamical RAM for     wfc (w. buffer):      57.01 MB

     Dynamical RAM for           str. fact:       1.16 MB

     Dynamical RAM for           local pot:       0.00 MB

     Dynamical RAM for          nlocal pot:       1.84 MB

     Dynamical RAM for                qrad:       1.76 MB

     Dynamical RAM for          rho,v,vnew:       7.69 MB

     Dynamical RAM for               rhoin:       2.56 MB

     Dynamical RAM for            rho*nmix:      18.50 MB

     Dynamical RAM for           G-vectors:       4.54 MB

     Dynamical RAM for          h,s,v(r/c):       0.06 MB

     Dynamical RAM for          <psi|beta>:       0.01 MB

     Dynamical RAM for                 psi:       1.84 MB

     Dynamical RAM for                hpsi:       1.84 MB

     Dynamical RAM for                spsi:       1.84 MB

     Dynamical RAM for      wfcinit/wfcrot:       1.85 MB

     Dynamical RAM for           addusdens:     217.40 MB

     Estimated static dynamical RAM per process >      85.90 MB

     Estimated max dynamical RAM per process >     321.80 MB

     Estimated total dynamical RAM >       1.89 GB

     Initial potential from superposition of free atoms

     starting charge      25.9999, renormalised to      28.0000

     negative rho (up, down):  6.174E-04 0.000E+00
     Starting wfcs are   18 randomized atomic wfcs

     total cpu time spent up to now is       71.3 secs

     Self-consistent Calculation

     iteration #  1     ecut=    60.00 Ry     beta= 0.70
     Davidson diagonalization with overlap

---- Real-time Memory Report at c_bands before calling an iterative solver
           303 MiB given to the printing process from OS
             0 MiB allocation reported by mallinfo(arena+hblkhd)
          5564 MiB available memory on the node where the printing process lives
------------------
     ethr =  1.00E-02,  avg # of iterations =  6.4

     negative rho (up, down):  8.382E-06 0.000E+00

     total cpu time spent up to now is      491.4 secs

     total energy              =    -316.96328890 Ry
     estimated scf accuracy    <       2.28917081 Ry

     iteration #  2     ecut=    60.00 Ry     beta= 0.70
     Davidson diagonalization with overlap

---- Real-time Memory Report at c_bands before calling an iterative solver
           390 MiB given to the printing process from OS
             0 MiB allocation reported by mallinfo(arena+hblkhd)
          5348 MiB available memory on the node where the printing process lives
------------------
     ethr =  8.18E-03,  avg # of iterations =  2.0

     negative rho (up, down):  1.207E-05 0.000E+00

     total cpu time spent up to now is      703.7 secs

     total energy              =    -317.71544613 Ry
     estimated scf accuracy    <       0.22991123 Ry

     iteration #  3     ecut=    60.00 Ry     beta= 0.70
     Davidson diagonalization with overlap

---- Real-time Memory Report at c_bands before calling an iterative solver
           393 MiB given to the printing process from OS
             0 MiB allocation reported by mallinfo(arena+hblkhd)
          5351 MiB available memory on the node where the printing process lives
------------------
     ethr =  8.21E-04,  avg # of iterations =  3.5

     negative rho (up, down):  4.491E-05 0.000E+00

     total cpu time spent up to now is      963.0 secs

     total energy              =    -317.73329319 Ry
     estimated scf accuracy    <       0.00831016 Ry

     iteration #  4     ecut=    60.00 Ry     beta= 0.70
     Davidson diagonalization with overlap

---- Real-time Memory Report at c_bands before calling an iterative solver
           398 MiB given to the printing process from OS
             0 MiB allocation reported by mallinfo(arena+hblkhd)
          5335 MiB available memory on the node where the printing process lives
------------------
     c_bands:  1 eigenvalues not converged
     ethr =  2.97E-05,  avg # of iterations =  8.2

     negative rho (up, down):  5.090E-05 0.000E+00

     total cpu time spent up to now is     1450.0 secs

     total energy              =    -317.73767346 Ry
     estimated scf accuracy    <       0.00215966 Ry

     iteration #  5     ecut=    60.00 Ry     beta= 0.70
     Davidson diagonalization with overlap

---- Real-time Memory Report at c_bands before calling an iterative solver
           399 MiB given to the printing process from OS
             0 MiB allocation reported by mallinfo(arena+hblkhd)
          5334 MiB available memory on the node where the printing process lives
------------------
     c_bands:  1 eigenvalues not converged
     ethr =  7.71E-06,  avg # of iterations =  5.2

     negative rho (up, down):  5.375E-05 0.000E+00

     total cpu time spent up to now is     1783.7 secs

     total energy              =    -317.73800260 Ry
     estimated scf accuracy    <       0.00015409 Ry

     iteration #  6     ecut=    60.00 Ry     beta= 0.70
     Davidson diagonalization with overlap

---- Real-time Memory Report at c_bands before calling an iterative solver
           400 MiB given to the printing process from OS
             0 MiB allocation reported by mallinfo(arena+hblkhd)
          5321 MiB available memory on the node where the printing process lives
------------------
     ethr =  5.50E-07,  avg # of iterations =  5.5

     negative rho (up, down):  5.394E-05 0.000E+00

     total cpu time spent up to now is     2142.9 secs

     total energy              =    -317.73807654 Ry
     estimated scf accuracy    <       0.00000551 Ry

     iteration #  7     ecut=    60.00 Ry     beta= 0.70
     Davidson diagonalization with overlap

---- Real-time Memory Report at c_bands before calling an iterative solver
           400 MiB given to the printing process from OS
             0 MiB allocation reported by mallinfo(arena+hblkhd)
          5311 MiB available memory on the node where the printing process lives
------------------
     ethr =  1.97E-08,  avg # of iterations =  4.3

     negative rho (up, down):  5.385E-05 0.000E+00

     total cpu time spent up to now is     2458.7 secs

     total energy              =    -317.73807936 Ry
     estimated scf accuracy    <       0.00000184 Ry

     iteration #  8     ecut=    60.00 Ry     beta= 0.70
     Davidson diagonalization with overlap

---- Real-time Memory Report at c_bands before calling an iterative solver
           401 MiB given to the printing process from OS
             0 MiB allocation reported by mallinfo(arena+hblkhd)
          5308 MiB available memory on the node where the printing process lives
------------------
     ethr =  6.59E-09,  avg # of iterations =  2.4

     negative rho (up, down):  5.379E-05 0.000E+00

     total cpu time spent up to now is     2676.6 secs

     End of self-consistent calculation

          k = 0.0000 0.0000 0.0000 ( 20001 PWs)   bands (ev):

   -24.1483 -24.1369 -24.1369 -24.0295 -24.0295 -23.8713 -23.8713 -23.7958
   -23.7958 -23.7366 -12.3392  -4.3926  -3.8295  -3.4553  -3.4553   0.5505
     0.5505   1.0149

     occupation numbers 
     1.0000   1.0000   1.0000   1.0000   1.0000   1.0000   1.0000   1.0000
     1.0000   1.0000   1.0000   1.0000   1.0000   1.0000   1.0000  -0.0000
    -0.0000  -0.0000

          k = 0.0000 0.0481 0.0000 ( 20007 PWs)   bands (ev):

   -24.1495 -24.1415 -24.1398 -24.0299 -24.0288 -23.8670 -23.8662 -23.7966
   -23.7954 -23.7364 -12.3244  -4.3772  -4.2588  -3.4892  -3.0447   0.5304
     0.6144   1.0373

     occupation numbers 
     1.0000   1.0000   1.0000   1.0000   1.0000   1.0000   1.0000   1.0000
     1.0000   1.0000   1.0000   1.0000   1.0000   1.0000   1.0013  -0.0000
    -0.0000  -0.0000

          k = 0.0000 0.0962 0.0000 ( 19993 PWs)   bands (ev):

   -24.1581 -24.1542 -24.1427 -24.0310 -24.0268 -23.8552 -23.8521 -23.7990
   -23.7943 -23.7359 -12.2800  -4.8350  -4.3311  -3.5839  -2.5351   0.5012
     0.7990   1.0973

     occupation numbers 
     1.0000   1.0000   1.0000   1.0000   1.0000   1.0000   1.0000   1.0000
     1.0000   1.0000   1.0000   1.0000   1.0000   1.0000   0.9178  -0.0000
    -0.0000  -0.0000

          k = 0.0000 0.1443 0.0000 ( 20039 PWs)   bands (ev):

   -24.1750 -24.1723 -24.1420 -24.0328 -24.0234 -23.8389 -23.8319 -23.8028
   -23.7925 -23.7345 -12.2061  -5.4146  -4.2548  -3.7224  -2.1027   0.5335
     1.0870   1.1881

     occupation numbers 
     1.0000   1.0000   1.0000   1.0000   1.0000   1.0000   1.0000   1.0000
     1.0000   1.0000   1.0000   1.0000   1.0000   1.0000  -0.0245  -0.0000
    -0.0000  -0.0000

          k = 0.0000 0.1925 0.0000 ( 20061 PWs)   bands (ev):

   -24.1955 -24.1930 -24.1401 -24.0351 -24.0189 -23.8216 -23.8084 -23.8080
   -23.7903 -23.7316 -12.1033  -5.9838  -4.1489  -3.8853  -1.8057   0.7023
     1.3095   1.3131

     occupation numbers 
     1.0000   1.0000   1.0000   1.0000   1.0000   1.0000   1.0000   1.0000
     1.0000   1.0000   1.0000   1.0000   1.0000   1.0000  -0.0060  -0.0000
    -0.0000  -0.0000

          k = 0.0000 0.2406 0.0000 ( 20045 PWs)   bands (ev):

   -24.2170 -24.2143 -24.1376 -24.0377 -24.0134 -23.8143 -23.8063 -23.7877
   -23.7838 -23.7258 -11.9721  -6.5360  -4.0558  -4.0146  -1.6648   0.9217
     1.0357   1.4690

     occupation numbers 
     1.0000   1.0000   1.0000   1.0000   1.0000   1.0000   1.0000   1.0000
     1.0000   1.0000   1.0000   1.0000   1.0000   1.0000  -0.0007  -0.0000
    -0.0000  -0.0000

          k = 0.0000 0.2887 0.0000 ( 20055 PWs)   bands (ev):

   -24.2378 -24.2348 -24.1349 -24.0404 -24.0070 -23.8214 -23.7953 -23.7849
   -23.7598 -23.7164 -11.8138  -7.0658  -4.2212  -3.8537  -1.6420   0.5153
     1.4558   1.7157

     occupation numbers 
     1.0000   1.0000   1.0000   1.0000   1.0000   1.0000   1.0000   1.0000
     1.0000   1.0000   1.0000   1.0000   1.0000   1.0000  -0.0005  -0.0000
    -0.0000  -0.0000

          k = 0.0000 0.3368 0.0000 ( 20085 PWs)   bands (ev):

   -24.2569 -24.2534 -24.1321 -24.0431 -24.0001 -23.8291 -23.7890 -23.7823
   -23.7377 -23.7043 -11.6305  -7.5679  -4.3723  -3.6689  -1.6815   0.1086
     1.7594   2.2000

     occupation numbers 
     1.0000   1.0000   1.0000   1.0000   1.0000   1.0000   1.0000   1.0000
     1.0000   1.0000   1.0000   1.0000   1.0000   1.0000  -0.0010  -0.0000
    -0.0000  -0.0000

          k = 0.0000 0.3849 0.0000 ( 20131 PWs)   bands (ev):

   -24.2734 -24.2694 -24.1295 -24.0456 -23.9931 -23.8369 -23.7860 -23.7799
   -23.7184 -23.6913 -11.4262  -8.0361  -4.5027  -3.4649  -1.7435  -0.2855
     2.0103   2.8117

     occupation numbers 
     1.0000   1.0000   1.0000   1.0000   1.0000   1.0000   1.0000   1.0000
     1.0000   1.0000   1.0000   1.0000   1.0000   1.0000  -0.0026  -0.0000
    -0.0000  -0.0000

          k = 0.0000 0.4330 0.0000 ( 20143 PWs)   bands (ev):

   -24.2868 -24.2823 -24.1272 -24.0477 -23.9864 -23.8441 -23.7850 -23.7778
   -23.7027 -23.6795 -11.2088  -8.4606  -4.6080  -3.2502  -1.8057  -0.6527
     2.2757   3.1529

     occupation numbers 
     1.0000   1.0000   1.0000   1.0000   1.0000   1.0000   1.0000   1.0000
     1.0000   1.0000   1.0000   1.0000   1.0000   1.0000  -0.0060  -0.0000
    -0.0000  -0.0000

          k = 0.0000 0.4811 0.0000 ( 20129 PWs)   bands (ev):

   -24.2966 -24.2918 -24.1254 -24.0492 -23.9809 -23.8502 -23.7848 -23.7762
   -23.6910 -23.6703 -10.9951  -8.8231  -4.6851  -3.0417  -1.8559  -0.9726
     2.5631   3.3504

     occupation numbers 
     1.0000   1.0000   1.0000   1.0000   1.0000   1.0000   1.0000   1.0000
     1.0000   1.0000   1.0000   1.0000   1.0000   1.0014  -0.0109  -0.0000
    -0.0000  -0.0000

          k = 0.0000 0.5292 0.0000 ( 20120 PWs)   bands (ev):

   -24.3026 -24.2975 -24.1243 -24.0502 -23.9771 -23.8543 -23.7848 -23.7753
   -23.6839 -23.6645 -10.8212  -9.0868  -4.7321  -2.8743  -1.8881  -1.2077
     2.8658   3.4833

     occupation numbers 
     1.0000   1.0000   1.0000   1.0000   1.0000   1.0000   1.0000   1.0000
     1.0000   1.0000   1.0000   1.0000   1.0000   1.0129  -0.0151  -0.0000
    -0.0000  -0.0000

          k = 0.0000-0.5774 0.0000 ( 20096 PWs)   bands (ev):

   -24.3046 -24.2995 -24.1239 -24.0505 -23.9757 -23.8557 -23.7849 -23.7749
   -23.6815 -23.6625 -10.7495  -9.1885  -4.7479  -2.8061  -1.8992  -1.2986
     3.0865   3.3779

     occupation numbers 
     1.0000   1.0000   1.0000   1.0000   1.0000   1.0000   1.0000   1.0000
     1.0000   1.0000   1.0000   1.0000   1.0000   1.0235  -0.0168  -0.0000
    -0.0000  -0.0000

          k = 0.0417 0.0722 0.0000 ( 20005 PWs)   bands (ev):

   -24.1562 -24.1466 -24.1445 -24.0307 -24.0274 -23.8590 -23.8566 -23.7982
   -23.7947 -23.7361 -12.2948  -4.6784  -4.3465  -3.5573  -2.6628   0.4971
     0.7470   1.0779

     occupation numbers 
     1.0000   1.0000   1.0000   1.0000   1.0000   1.0000   1.0000   1.0000
     1.0000   1.0000   1.0000   1.0000   1.0000   1.0000   1.0306  -0.0000
    -0.0000  -0.0000

          k = 0.0417 0.1203 0.0000 ( 20013 PWs)   bands (ev):

   -24.1727 -24.1593 -24.1442 -24.0322 -24.0247 -23.8450 -23.8396 -23.8013
   -23.7932 -23.7351 -12.2356  -5.2070  -4.2852  -3.6829  -2.2247   0.4739
     1.0040   1.1517

     occupation numbers 
     1.0000   1.0000   1.0000   1.0000   1.0000   1.0000   1.0000   1.0000
     1.0000   1.0000   1.0000   1.0000   1.0000   1.0000   0.1059  -0.0000
    -0.0000  -0.0000

          k = 0.0417 0.1684 0.0000 ( 20052 PWs)   bands (ev):

   -24.1938 -24.1765 -24.1425 -24.0342 -24.0207 -23.8282 -23.8182 -23.8059
   -23.7911 -23.7329 -12.1473  -5.7561  -4.1941  -3.8438  -1.8590   0.5366
     1.2538   1.3626

     occupation numbers 
     1.0000   1.0000   1.0000   1.0000   1.0000   1.0000   1.0000   1.0000
     1.0000   1.0000   1.0000   1.0000   1.0000   1.0000  -0.0112  -0.0000
    -0.0000  -0.0000

          k = 0.0417 0.2165 0.0000 ( 20055 PWs)   bands (ev):

   -24.2164 -24.1955 -24.1402 -24.0367 -24.0156 -23.8117 -23.8117 -23.7951
   -23.7886 -23.7281 -12.0302  -6.3014  -4.0740  -4.0200  -1.6303   0.7509
     1.0915   1.3882

     occupation numbers 
     1.0000   1.0000   1.0000   1.0000   1.0000   1.0000   1.0000   1.0000
     1.0000   1.0000   1.0000   1.0000   1.0000   1.0000  -0.0004  -0.0000
    -0.0000  -0.0000

          k = 0.0417 0.2646 0.0000 ( 20075 PWs)   bands (ev):

   -24.2389 -24.2147 -24.1375 -24.0395 -24.0095 -23.8185 -23.7986 -23.7859
   -23.7722 -23.7196 -11.8853  -6.8322  -4.1961  -3.9262  -1.5432   0.6966
     1.1225   1.5597

     occupation numbers 
     1.0000   1.0000   1.0000   1.0000   1.0000   1.0000   1.0000   1.0000
     1.0000   1.0000   1.0000   1.0000   1.0000   1.0000  -0.0001  -0.0000
    -0.0000  -0.0000

          k = 0.0417 0.3127 0.0000 ( 20077 PWs)   bands (ev):

   -24.2599 -24.2328 -24.1347 -24.0422 -24.0028 -23.8261 -23.7903 -23.7832
   -23.7508 -23.7072 -11.7142  -7.3413  -4.3609  -3.7530  -1.5501   0.2935
     1.5652   1.8122

     occupation numbers 
     1.0000   1.0000   1.0000   1.0000   1.0000   1.0000   1.0000   1.0000
     1.0000   1.0000   1.0000   1.0000   1.0000   1.0000  -0.0001  -0.0000
    -0.0000  -0.0000

          k = 0.0417 0.3608 0.0000 ( 20090 PWs)   bands (ev):

   -24.2785 -24.2490 -24.1320 -24.0449 -23.9956 -23.8339 -23.7861 -23.7806
   -23.7318 -23.6929 -11.5197  -7.8220  -4.5068  -3.5579  -1.6004  -0.1045
     1.8849   2.2892

     occupation numbers 
     1.0000   1.0000   1.0000   1.0000   1.0000   1.0000   1.0000   1.0000
     1.0000   1.0000   1.0000   1.0000   1.0000   1.0000  -0.0002  -0.0000
    -0.0000  -0.0000

          k = 0.0417 0.4090 0.0000 ( 20107 PWs)   bands (ev):

   -24.2941 -24.2626 -24.1295 -24.0472 -23.9886 -23.8416 -23.7845 -23.7783
   -23.7158 -23.6789 -11.3074  -8.2662  -4.6285  -3.3471  -1.6621  -0.4842
     2.1493   2.8826

     occupation numbers 
     1.0000   1.0000   1.0000   1.0000   1.0000   1.0000   1.0000   1.0000
     1.0000   1.0000   1.0000   1.0000   1.0000   1.0000  -0.0007  -0.0000
    -0.0000  -0.0000

          k = 0.0417 0.4571 0.0000 ( 20118 PWs)   bands (ev):

   -24.3062 -24.2731 -24.1274 -24.0490 -23.9823 -23.8485 -23.7841 -23.7765
   -23.7033 -23.6671 -11.0886  -8.6605  -4.7225  -3.1323  -1.7181  -0.8292
     2.4272   3.2240

     occupation numbers 
     1.0000   1.0000   1.0000   1.0000   1.0000   1.0000   1.0000   1.0000
     1.0000   1.0000   1.0000   1.0000   1.0000   1.0003  -0.0017  -0.0000
    -0.0000  -0.0000

          k = 0.0417 0.5052 0.0000 ( 20132 PWs)   bands (ev):

   -24.3144 -24.2803 -24.1259 -24.0503 -23.9774 -23.8538 -23.7842 -23.7752
   -23.6948 -23.6588 -10.8880  -8.9790  -4.7863  -2.9379  -1.7591  -1.1121
     2.7246   3.3432

     occupation numbers 
     1.0000   1.0000   1.0000   1.0000   1.0000   1.0000   1.0000   1.0000
     1.0000   1.0000   1.0000   1.0000   1.0000   1.0062  -0.0032  -0.0000
    -0.0000  -0.0000

          k = 0.0417 0.5533 0.0000 ( 20126 PWs)   bands (ev):

   -24.3185 -24.2840 -24.1252 -24.0510 -23.9747 -23.8567 -23.7843 -23.7745
   -23.6905 -23.6545 -10.7558  -9.1703  -4.8186  -2.8114  -1.7806  -1.2832
     3.0185   3.3860

     occupation numbers 
     1.0000   1.0000   1.0000   1.0000   1.0000   1.0000   1.0000   1.0000
     1.0000   1.0000   1.0000   1.0000   1.0000   1.0226  -0.0043  -0.0000
    -0.0000  -0.0000

          k = 0.0833 0.1443 0.0000 ( 20045 PWs)   bands (ev):

   -24.1936 -24.1685 -24.1451 -24.0340 -24.0213 -23.8306 -23.8218 -23.8052
   -23.7914 -23.7332 -12.1619  -5.6706  -4.2092  -3.8437  -1.8594   0.4464
     1.2362   1.3546

     occupation numbers 
     1.0000   1.0000   1.0000   1.0000   1.0000   1.0000   1.0000   1.0000
     1.0000   1.0000   1.0000   1.0000   1.0000   1.0000  -0.0113  -0.0000
    -0.0000  -0.0000

          k = 0.0833 0.1925 0.0000 ( 20059 PWs)   bands (ev):

   -24.2168 -24.1823 -24.1440 -24.0364 -24.0166 -23.8144 -23.8105 -23.8019
   -23.7890 -23.7288 -12.0593  -6.1667  -4.1038  -4.0355  -1.5406   0.5001
     1.1844   1.3501

     occupation numbers 
     1.0000   1.0000   1.0000   1.0000   1.0000   1.0000   1.0000   1.0000
     1.0000   1.0000   1.0000   1.0000   1.0000   1.0000  -0.0001  -0.0000
    -0.0000  -0.0000

          k = 0.0833 0.2406 0.0000 ( 20083 PWs)   bands (ev):

   -24.2404 -24.1980 -24.1419 -24.0391 -24.0108 -23.8170 -23.7997 -23.7863
   -23.7827 -23.7203 -11.9283  -6.6691  -4.2342  -3.9700  -1.3401   0.7051
     0.8185   1.4942

     occupation numbers 
     1.0000   1.0000   1.0000   1.0000   1.0000   1.0000   1.0000   1.0000
     1.0000   1.0000   1.0000   1.0000   1.0000   1.0000  -0.0000  -0.0000
    -0.0000  -0.0000

          k = 0.0833 0.2887 0.0000 ( 20094 PWs)   bands (ev):

   -24.2631 -24.2139 -24.1394 -24.0420 -24.0041 -23.8244 -23.7896 -23.7835
   -23.7646 -23.7071 -11.7703  -7.1636  -4.4241  -3.8095  -1.2689   0.4341
     1.0728   1.6709

     occupation numbers 
     1.0000   1.0000   1.0000   1.0000   1.0000   1.0000   1.0000   1.0000
     1.0000   1.0000   1.0000   1.0000   1.0000   1.0000  -0.0000  -0.0000
    -0.0000  -0.0000

          k = 0.0833 0.3368 0.0000 ( 20094 PWs)   bands (ev):

   -24.2836 -24.2288 -24.1367 -24.0448 -23.9968 -23.8325 -23.7844 -23.7808
   -23.7477 -23.6908 -11.5871  -7.6404  -4.5953  -3.6251  -1.2810   0.0455
     1.5493   1.8892

     occupation numbers 
     1.0000   1.0000   1.0000   1.0000   1.0000   1.0000   1.0000   1.0000
     1.0000   1.0000   1.0000   1.0000   1.0000   1.0000  -0.0000  -0.0000
    -0.0000  -0.0000

          k = 0.0833 0.3849 0.0000 ( 20088 PWs)   bands (ev):

   -24.3013 -24.2419 -24.1340 -24.0474 -23.9893 -23.8406 -23.7824 -23.7782
   -23.7327 -23.6745 -11.3828  -8.0905  -4.7414  -3.4213  -1.3287  -0.3347
     2.0044   2.2299

     occupation numbers 
     1.0000   1.0000   1.0000   1.0000   1.0000   1.0000   1.0000   1.0000
     1.0000   1.0000   1.0000   1.0000   1.0000   1.0000  -0.0000  -0.0000
    -0.0000  -0.0000

          k = 0.0833 0.4330 0.0000 ( 20111 PWs)   bands (ev):

   -24.3156 -24.2526 -24.1318 -24.0495 -23.9822 -23.8484 -23.7820 -23.7761
   -23.7202 -23.6603 -11.1647  -8.5027  -4.8582  -3.2061  -1.3832  -0.6922
     2.3125   2.7764

     occupation numbers 
     1.0000   1.0000   1.0000   1.0000   1.0000   1.0000   1.0000   1.0000
     1.0000   1.0000   1.0000   1.0000   1.0000   1.0001  -0.0000  -0.0000
    -0.0000  -0.0000

          k = 0.0833 0.4811 0.0000 ( 20119 PWs)   bands (ev):

   -24.3261 -24.2605 -24.1300 -24.0512 -23.9761 -23.8549 -23.7822 -23.7745
   -23.7109 -23.6493 -10.9493  -8.8585  -4.9433  -2.9960  -1.4293  -1.0066
     2.6058   3.1160

     occupation numbers 
     1.0000   1.0000   1.0000   1.0000   1.0000   1.0000   1.0000   1.0000
     1.0000   1.0000   1.0000   1.0000   1.0000   1.0028  -0.0000  -0.0000
    -0.0000  -0.0000

          k = 0.0833 0.5292 0.0000 ( 20109 PWs)   bands (ev):

   -24.3325 -24.2653 -24.1288 -24.0522 -23.9719 -23.8594 -23.7826 -23.7735
   -23.7051 -23.6425 -10.7724  -9.1202  -4.9949  -2.8258  -1.4593  -1.2405
     2.9077   3.1180

     occupation numbers 
     1.0000   1.0000   1.0000   1.0000   1.0000   1.0000   1.0000   1.0000
     1.0000   1.0000   1.0000   1.0000   1.0000   1.0202  -0.0000  -0.0000
    -0.0000  -0.0000

          k = 0.0833 0.5774 0.0000 ( 20128 PWs)   bands (ev):

   -24.3347 -24.2669 -24.1284 -24.0526 -23.9704 -23.8610 -23.7827 -23.7731
   -23.7032 -23.6402 -10.6988  -9.2222  -5.0122  -2.7557  -1.4697  -1.3320
     3.1143   3.1229

     occupation numbers 
     1.0000   1.0000   1.0000   1.0000   1.0000   1.0000   1.0000   1.0000
     1.0000   1.0000   1.0000   1.0000   1.0000   1.0316  -0.0000  -0.0000
    -0.0000  -0.0000

          k = 0.1250 0.2165 0.0000 ( 20077 PWs)   bands (ev):

   -24.2410 -24.1911 -24.1445 -24.0391 -24.0111 -23.8166 -23.7995 -23.7871
   -23.7864 -23.7204 -11.9427  -6.6094  -4.2585  -3.9846  -1.2247   0.5151
     0.8619   2.3509

     occupation numbers 
     1.0000   1.0000   1.0000   1.0000   1.0000   1.0000   1.0000   1.0000
     1.0000   1.0000   1.0000   1.0000   1.0000   1.0000  -0.0000  -0.0000
    -0.0000  -0.0000

          k = 0.1250 0.2646 0.0000 ( 20086 PWs)   bands (ev):

   -24.2647 -24.2019 -24.1438 -24.0420 -24.0045 -23.8238 -23.7867 -23.7836
   -23.7749 -23.7066 -11.7984  -7.0633  -4.4825  -3.8379  -0.9960   0.5113
     0.6678   1.6310

     occupation numbers 
     1.0000   1.0000   1.0000   1.0000   1.0000   1.0000   1.0000   1.0000
     1.0000   1.0000   1.0000   1.0000   1.0000   1.0000  -0.0000  -0.0000
    -0.0000  -0.0000

          k = 0.1250 0.3127 0.0000 ( 20092 PWs)   bands (ev):

   -24.2867 -24.2134 -24.1421 -24.0450 -23.9971 -23.8319 -23.7806 -23.7801
   -23.7617 -23.6891 -11.6278  -7.5146  -4.6898  -3.6658  -0.8967   0.1468
     0.9987   1.8167

     occupation numbers 
     1.0000   1.0000   1.0000   1.0000   1.0000   1.0000   1.0000   1.0000
     1.0000   1.0000   1.0000   1.0000   1.0000   1.0000  -0.0000  -0.0000
    -0.0000  -0.0000

          k = 0.1250 0.3608 0.0000 ( 20080 PWs)   bands (ev):

   -24.3063 -24.2243 -24.1400 -24.0478 -23.9892 -23.8404 -23.7782 -23.7779
   -23.7482 -23.6710 -11.4336  -7.9525  -4.8705  -3.4714  -0.8907  -0.2196
     1.4679   2.0339

     occupation numbers 
     1.0000   1.0000   1.0000   1.0000   1.0000   1.0000   1.0000   1.0000
     1.0000   1.0000   1.0000   1.0000   1.0000   1.0000  -0.0000  -0.0000
    -0.0000  -0.0000

          k = 0.1250 0.4090 0.0000 ( 20114 PWs)   bands (ev):

   -24.3227 -24.2338 -24.1379 -24.0504 -23.9812 -23.8490 -23.7782 -23.7754
   -23.7361 -23.6545 -11.2208  -8.3661  -5.0190  -3.2604  -0.9249  -0.5755
     2.0094   2.2884

     occupation numbers 
     1.0000   1.0000   1.0000   1.0000   1.0000   1.0000   1.0000   1.0000
     1.0000   1.0000   1.0000   1.0000   1.0000   1.0000  -0.0000  -0.0000
    -0.0000  -0.0000

          k = 0.1250 0.4571 0.0000 ( 20113 PWs)   bands (ev):

   -24.3353 -24.2414 -24.1361 -24.0524 -23.9739 -23.8569 -23.7789 -23.7735
   -23.7266 -23.6412 -10.9998  -8.7409  -5.1322  -3.0437  -0.9668  -0.9051
     2.4907   2.6630

     occupation numbers 
     1.0000   1.0000   1.0000   1.0000   1.0000   1.0000   1.0000   1.0000
     1.0000   1.0000   1.0000   1.0000   1.0000   1.0014  -0.0000  -0.0000
    -0.0000  -0.0000

          k = 0.1250 0.5052 0.0000 ( 20113 PWs)   bands (ev):

   -24.3440 -24.2467 -24.1347 -24.0538 -23.9680 -23.8631 -23.7796 -23.7721
   -23.7199 -23.6320 -10.7941  -9.0506  -5.2085  -2.8445  -1.1815  -1.0008
     2.8098   2.8476

     occupation numbers 
     1.0000   1.0000   1.0000   1.0000   1.0000   1.0000   1.0000   1.0000
     1.0000   1.0000   1.0000   1.0000   1.0000   1.0172  -0.0000  -0.0000
    -0.0000  -0.0000

          k = 0.1250 0.5533 0.0000 ( 20114 PWs)   bands (ev):

   -24.3484 -24.2493 -24.1340 -24.0545 -23.9647 -23.8665 -23.7800 -23.7714
   -23.7165 -23.6272 -10.6556  -9.2416  -5.2468  -2.7120  -1.3532  -1.0192
     2.8210   3.0921

     occupation numbers 
     1.0000   1.0000   1.0000   1.0000   1.0000   1.0000   1.0000   1.0000
     1.0000   1.0000   1.0000   1.0000   1.0000   1.0354  -0.0000  -0.0000
    -0.0000  -0.0000

          k = 0.1667 0.2887 0.0000 ( 20089 PWs)   bands (ev):

   -24.2878 -24.2072 -24.1448 -24.0451 -23.9972 -23.8317 -23.7806 -23.7738
   -23.7714 -23.6884 -11.6414  -7.4690  -4.7289  -3.6793  -0.6838   0.1830
     0.7275   1.7981

     occupation numbers 
     1.0000   1.0000   1.0000   1.0000   1.0000   1.0000   1.0000   1.0000
     1.0000   1.0000   1.0000   1.0000   1.0000   1.0000  -0.0000  -0.0000
    -0.0000  -0.0000

          k = 0.1667 0.3368 0.0000 ( 20084 PWs)   bands (ev):

   -24.3088 -24.2134 -24.1449 -24.0482 -23.9890 -23.8405 -23.7776 -23.7717
   -23.7607 -23.6691 -11.4592  -7.8750  -4.9525  -3.4966  -0.4936  -0.1560
     0.9688   1.9952

     occupation numbers 
     1.0000   1.0000   1.0000   1.0000   1.0000   1.0000   1.0000   1.0000
     1.0000   1.0000   1.0000   1.0000   1.0000   1.0000  -0.0000  -0.0000
    -0.0000  -0.0000

          k = 0.1667 0.3849 0.0000 ( 20093 PWs)   bands (ev):

   -24.3270 -24.2196 -24.1442 -24.0510 -23.9803 -23.8498 -23.7749 -23.7726
   -23.7496 -23.6509 -11.2551  -8.2710  -5.1424  -3.2937  -0.4956  -0.4331
     1.3929   2.2208

     occupation numbers 
     1.0000   1.0000   1.0000   1.0000   1.0000   1.0000   1.0000   1.0000
     1.0000   1.0000   1.0000   1.0000   1.0000   1.0000  -0.0000  -0.0000
    -0.0000  -0.0000

          k = 0.1667 0.4330 0.0000 ( 20113 PWs)   bands (ev):

   -24.3416 -24.2251 -24.1432 -24.0534 -23.9717 -23.8588 -23.7740 -23.7725
   -23.7404 -23.6356 -11.0355  -8.6452  -5.2930  -3.0774  -0.8235  -0.4385
     1.9267   2.4729

     occupation numbers 
     1.0000   1.0000   1.0000   1.0000   1.0000   1.0000   1.0000   1.0000
     1.0000   1.0000   1.0000   1.0000   1.0000   1.0008  -0.0000  -0.0000
    -0.0000  -0.0000

          k = 0.1667 0.4811 0.0000 ( 20107 PWs)   bands (ev):

   -24.3524 -24.2295 -24.1422 -24.0553 -23.9640 -23.8668 -23.7753 -23.7708
   -23.7335 -23.6240 -10.8148  -8.9792  -5.4017  -2.8625  -1.1212  -0.4620
     2.5055   2.6272

     occupation numbers 
     1.0000   1.0000   1.0000   1.0000   1.0000   1.0000   1.0000   1.0000
     1.0000   1.0000   1.0000   1.0000   1.0000   1.0145  -0.0000  -0.0000
    -0.0000  -0.0000

          k = 0.1667 0.5292 0.0000 ( 20106 PWs)   bands (ev):

   -24.3590 -24.2322 -24.1415 -24.0564 -23.9585 -23.8726 -23.7762 -23.7697
   -23.7292 -23.6168 -10.6275  -9.2355  -5.4672  -2.6823  -1.3522  -0.4820
     2.5699   3.0047

     occupation numbers 
     1.0000   1.0000   1.0000   1.0000   1.0000   1.0000   1.0000   1.0000
     1.0000   1.0000   1.0000   1.0000   1.0000   1.0341  -0.0000  -0.0000
    -0.0000  -0.0000

          k = 0.1667 0.5774 0.0000 ( 20103 PWs)   bands (ev):

   -24.3612 -24.2331 -24.1412 -24.0568 -23.9564 -23.8748 -23.7765 -23.7693
   -23.7278 -23.6144 -10.5465  -9.3397  -5.4891  -2.6052  -1.4464  -0.4894
     2.5494   3.1478

     occupation numbers 
     1.0000   1.0000   1.0000   1.0000   1.0000   1.0000   1.0000   1.0000
     1.0000   1.0000   1.0000   1.0000   1.0000   1.0023  -0.0000  -0.0000
    -0.0000  -0.0000

          k = 0.2083 0.3608 0.0000 ( 20087 PWs)   bands (ev):

   -24.3284 -24.2139 -24.1472 -24.0513 -23.9799 -23.8501 -23.7746 -23.7679
   -23.7570 -23.6497 -11.2666  -8.2366  -5.1883  -3.3049  -0.4669  -0.1513
     1.0658   2.2035

     occupation numbers 
     1.0000   1.0000   1.0000   1.0000   1.0000   1.0000   1.0000   1.0000
     1.0000   1.0000   1.0000   1.0000   1.0000   1.0000  -0.0000  -0.0000
    -0.0000  -0.0000

          k = 0.2083 0.4090 0.0000 ( 20099 PWs)   bands (ev):

   -24.3448 -24.2149 -24.1487 -24.0540 -23.9704 -23.8600 -23.7720 -23.7686
   -23.7505 -23.6326 -11.0539  -8.5907  -5.3844  -3.0948  -0.7775   0.0356
     1.3742   2.4392

     occupation numbers 
     1.0000   1.0000   1.0000   1.0000   1.0000   1.0000   1.0000   1.0000
     1.0000   1.0000   1.0000   1.0000   1.0000   1.0006  -0.0000  -0.0000
    -0.0000  -0.0000

          k = 0.2083 0.4571 0.0000 ( 20115 PWs)   bands (ev):

   -24.3576 -24.2160 -24.1495 -24.0563 -23.9610 -23.8697 -23.7701 -23.7699
   -23.7446 -23.6190 -10.8292  -8.9253  -5.5344  -2.8751  -1.0760   0.0922
     1.8552   2.4860

     occupation numbers 
     1.0000   1.0000   1.0000   1.0000   1.0000   1.0000   1.0000   1.0000
     1.0000   1.0000   1.0000   1.0000   1.0000   1.0128  -0.0000  -0.0000
    -0.0000  -0.0000

          k = 0.2083 0.5052 0.0000 ( 20122 PWs)   bands (ev):

   -24.3662 -24.2170 -24.1499 -24.0579 -23.9530 -23.8780 -23.7714 -23.7684
   -23.7404 -23.6096 -10.6123  -9.2175  -5.6354  -2.6651  -1.3401   0.0979
     2.3876   2.3981

     occupation numbers 
     1.0000   1.0000   1.0000   1.0000   1.0000   1.0000   1.0000   1.0000
     1.0000   1.0000   1.0000   1.0000   1.0000   1.0311  -0.0000  -0.0000
    -0.0000  -0.0000

          k = 0.2083 0.5533 0.0000 ( 20133 PWs)   bands (ev):

   -24.3706 -24.2176 -24.1500 -24.0587 -23.9480 -23.8831 -23.7722 -23.7676
   -23.7382 -23.6047 -10.4560  -9.4120  -5.6862  -2.5157  -1.5172   0.0940
     2.3378   2.8359

     occupation numbers 
     1.0000   1.0000   1.0000   1.0000   1.0000   1.0000   1.0000   1.0000
     1.0000   1.0000   1.0000   1.0000   1.0000   0.8830  -0.0000  -0.0000
    -0.0000  -0.0000

          k = 0.2500 0.4330 0.0000 ( 20133 PWs)   bands (ev):

   -24.3593 -24.2105 -24.1529 -24.0567 -23.9599 -23.8708 -23.7696 -23.7668
   -23.7499 -23.6173 -10.8344  -8.9053  -5.5816  -2.8796  -1.0592   0.4213
     1.4927   2.4345

     occupation numbers 
     1.0000   1.0000   1.0000   1.0000   1.0000   1.0000   1.0000   1.0000
     1.0000   1.0000   1.0000   1.0000   1.0000   1.0122  -0.0000  -0.0000
    -0.0000  -0.0000

          k = 0.2500 0.4811 0.0000 ( 20115 PWs)   bands (ev):

   -24.3699 -24.2069 -24.1565 -24.0587 -23.9496 -23.8813 -23.7677 -23.7668
   -23.7483 -23.6058 -10.6060  -9.2033  -5.7262  -2.6576  -1.3299   0.6218
     1.8291   2.2923

     occupation numbers 
     1.0000   1.0000   1.0000   1.0000   1.0000   1.0000   1.0000   1.0000
     1.0000   1.0000   1.0000   1.0000   1.0000   1.0292  -0.0000  -0.0000
    -0.0000  -0.0000

          k = 0.2500 0.5292 0.0000 ( 20109 PWs)   bands (ev):

   -24.3764 -24.2045 -24.1589 -24.0599 -23.9410 -23.8901 -23.7673 -23.7665
   -23.7468 -23.5987 -10.3955  -9.4564  -5.8141  -2.4552  -1.5621   0.6852
     2.2042   2.2762

     occupation numbers 
     1.0000   1.0000   1.0000   1.0000   1.0000   1.0000   1.0000   1.0000
     1.0000   1.0000   1.0000   1.0000   1.0000   0.7427  -0.0001  -0.0000
    -0.0000  -0.0000

          k = 0.2500 0.5774 0.0000 ( 20109 PWs)   bands (ev):

   -24.3786 -24.2036 -24.1597 -24.0603 -23.9373 -23.8939 -23.7676 -23.7661
   -23.7463 -23.5963 -10.2917  -9.5745  -5.8436  -2.3564  -1.6710   0.6978
     2.1744   2.5272

     occupation numbers 
     1.0000   1.0000   1.0000   1.0000   1.0000   1.0000   1.0000   1.0000
     1.0000   1.0000   1.0000   1.0000   1.0000   0.4479  -0.0008  -0.0000
    -0.0000  -0.0000

          k = 0.2917 0.5052 0.0000 ( 20105 PWs)   bands (ev):

   -24.3784 -24.1984 -24.1635 -24.0603 -23.9381 -23.8930 -23.7661 -23.7643
   -23.7511 -23.5967 -10.3741  -9.4714  -5.8585  -2.4336  -1.5777   1.0564
     1.9038   2.1583

     occupation numbers 
     1.0000   1.0000   1.0000   1.0000   1.0000   1.0000   1.0000   1.0000
     1.0000   1.0000   1.0000   1.0000   1.0000   0.6830  -0.0001  -0.0000
    -0.0000  -0.0000

          k = 0.2917 0.5533 0.0000 ( 20115 PWs)   bands (ev):

   -24.3826 -24.1921 -24.1690 -24.0612 -23.9285 -23.9027 -23.7653 -23.7629
   -23.7528 -23.5921 -10.1681  -9.6955  -5.9258  -2.2363  -1.7867   1.2625
     2.0899   2.0944

     occupation numbers 
     1.0000   1.0000   1.0000   1.0000   1.0000   1.0000   1.0000   1.0000
     1.0000   1.0000   1.0000   1.0000   1.0000   0.1283  -0.0047  -0.0000
    -0.0000  -0.0000

          k = 0.3333 0.5774 0.0000 ( 20085 PWs)   bands (ev):

   -24.3847 -24.1802 -24.1802 -24.0617 -23.9156 -23.9156 -23.7649 -23.7581
   -23.7581 -23.5898  -9.9336  -9.9336  -5.9637  -2.0123  -2.0123   1.7614
     1.7614   2.0513

     occupation numbers 
     1.0000   1.0000   1.0000   1.0000   1.0000   1.0000   1.0000   1.0000
     1.0000   1.0000   1.0000   1.0000   1.0000  -0.0341  -0.0341  -0.0000
    -0.0000  -0.0000

     the Fermi energy is    -2.3731 ev

!    total energy              =    -317.73807966 Ry
     estimated scf accuracy    <       0.00000008 Ry
     smearing contrib. (-TS)   =       0.00028789 Ry
     internal energy E=F+TS    =    -317.73836755 Ry

     The total energy is F=E-TS. E is the sum of the following terms:
     one-electron contribution =    -884.78660589 Ry
     hartree contribution      =     449.07341115 Ry
     xc contribution           =     -85.00347696 Ry
     ewald contribution        =     202.97830415 Ry

     convergence has been achieved in   8 iterations

     Writing all to output data dir ../tmp/stanene.save/

     init_run     :     45.68s CPU     71.19s WALL (       1 calls)
     electrons    :   1792.30s CPU   2605.37s WALL (       1 calls)

     Called by init_run:
     wfcinit      :     42.22s CPU     63.69s WALL (       1 calls)
     wfcinit:atom :      0.14s CPU      0.15s WALL (      61 calls)
     wfcinit:wfcr :     41.39s CPU     62.88s WALL (      61 calls)
     potinit      :      0.43s CPU      0.46s WALL (       1 calls)
     hinit0       :      0.45s CPU      0.46s WALL (       1 calls)

     Called by electrons:
     c_bands      :   1646.92s CPU   2396.44s WALL (       8 calls)
     sum_band     :    121.16s CPU    169.85s WALL (       8 calls)
     v_of_rho     :      1.36s CPU      1.39s WALL (       9 calls)
     v_h          :      0.11s CPU      0.12s WALL (       9 calls)
     v_xc         :      1.25s CPU      1.27s WALL (       9 calls)
     newd         :     24.68s CPU     43.49s WALL (       9 calls)
     mix_rho      :      0.19s CPU      0.20s WALL (       8 calls)

     Called by c_bands:
     init_us_2    :      1.42s CPU      1.58s WALL (    1037 calls)
     init_us_2:cp :      1.42s CPU      1.57s WALL (    1037 calls)
     cegterg      :   1604.33s CPU   2356.67s WALL (     488 calls)

     Called by sum_band:
     sum_band:wei :      0.02s CPU      0.01s WALL (       8 calls)
     sum_band:loo :    116.99s CPU    164.75s WALL (       8 calls)
     sum_band:buf :      0.13s CPU      0.20s WALL (     488 calls)
     sum_band:ini :      0.51s CPU      0.80s WALL (     488 calls)
     sum_band:cal :     89.26s CPU    133.58s WALL (     488 calls)
     sum_band:bec :      0.01s CPU      0.01s WALL (     488 calls)
     addusdens    :      3.72s CPU      4.63s WALL (       8 calls)
                                        0.00s GPU  (       8 calls)
     addusd:skk   :      0.01s CPU      0.01s WALL (       8 calls)
                                        0.00s GPU  (       8 calls)

     Called by *egterg:
     cdiaghg      :    123.52s CPU    188.20s WALL (    2778 calls)
     cegterg:over :    453.78s CPU    643.66s WALL (    2290 calls)
     cegterg:upda :     54.22s CPU    102.05s WALL (    2290 calls)
     cegterg:last :     48.12s CPU     92.25s WALL (    1248 calls)
     h_psi        :    656.01s CPU    992.15s WALL (    2839 calls)
     s_psi        :     25.17s CPU     43.14s WALL (    2839 calls)
     g_psi        :      0.29s CPU      0.25s WALL (    2290 calls)

     Called by h_psi:
     h_psi:calbec :    413.95s CPU    674.10s WALL (    2839 calls)
     vloc_psi     :    166.25s CPU    155.86s WALL (    2839 calls)
     add_vuspsi   :     75.25s CPU    161.36s WALL (    2839 calls)

     General routines
     calbec       :    503.16s CPU    807.37s WALL (    3327 calls)
     fft          :      1.49s CPU      1.53s WALL (     115 calls)
     ffts         :      0.27s CPU      0.28s WALL (      17 calls)
     fftw         :    175.61s CPU    164.17s WALL (   64666 calls)
     interpolate  :      0.26s CPU      0.26s WALL (       9 calls)

     Parallel routines

     PWSCF        :  30m38.26s CPU  44m37.44s WALL


   This run was terminated on:  10:26:40  21Jun2024            

=------------------------------------------------------------------------------=
   JOB DONE.
=------------------------------------------------------------------------------=
