
     Program PWSCF v.6.7MaX starts on 22Jan2024 at 10:30:49 

     This program is part of the open-source Quantum ESPRESSO suite
     for quantum simulation of materials; please cite
         "P. Giannozzi et al., J. Phys.:Condens. Matter 21 395502 (2009);
         "P. Giannozzi et al., J. Phys.:Condens. Matter 29 465901 (2017);
          URL http://www.quantum-espresso.org", 
     in publications or presentations arising from this work. More details at
     http://www.quantum-espresso.org/quote

     Parallel version (MPI), running on     6 processors

     MPI processes distributed on     1 nodes
     R & G space division:  proc/nbgrp/npool/nimage =       6
     Waiting for input...
     Reading input from standard input

     Current dimensions of program PWSCF are:
     Max number of different atomic species (ntypx) = 10
     Max number of k-points (npk) =  40000
     Max angular momentum in pseudopotentials (lmaxx) =  3

     Subspace diagonalization in iterative solution of the eigenvalue problem:
     one sub-group per band group will be used
     scalapack distributed-memory algorithm (size of sub-group:  2*  2 procs)


     Parallelization info
     --------------------
     sticks:   dense  smooth     PW     G-vecs:    dense   smooth      PW
     Min         214     214     61                26776    26776    4007
     Max         215     215     62                26799    26799    4017
     Sum        1285    1285    367               160699   160699   24069



     bravais-lattice index     =            4
     lattice parameter (alat)  =       8.8439  a.u.
     unit-cell volume          =    2560.0529 (a.u.)^3
     number of atoms/cell      =            2
     number of atomic types    =            1
     number of electrons       =        28.00
     number of Kohn-Sham states=           18
     kinetic-energy cutoff     =      60.0000  Ry
     charge density cutoff     =     240.0000  Ry
     scf convergence threshold =      1.0E-09
     mixing beta               =       0.7000
     number of iterations used =            8  plain     mixing
     energy convergence thresh.=      1.0E-05
     force convergence thresh. =      1.0E-04
     press convergence thresh. =      5.0E-02
     Exchange-correlation= SLA  PW   PBE  PBE
                           (   1   4   3   4   0   0   0)
     nstep                     =           50


     celldm(1)=   8.843918  celldm(2)=   0.000000  celldm(3)=   4.273504
     celldm(4)=   0.000000  celldm(5)=   0.000000  celldm(6)=   0.000000

     crystal axes: (cart. coord. in units of alat)
               a(1) = (   1.000000   0.000000   0.000000 )  
               a(2) = (  -0.500000   0.866025   0.000000 )  
               a(3) = (   0.000000   0.000000   4.273504 )  

     reciprocal axes: (cart. coord. in units 2 pi/alat)
               b(1) = (  1.000000  0.577350 -0.000000 )  
               b(2) = (  0.000000  1.154701  0.000000 )  
               b(3) = (  0.000000 -0.000000  0.234000 )  


     PseudoPot. # 1 for Sn read from file:
     ../pseudo/Sn_pbe_v1.uspp.F.UPF
     MD5 check sum: 4cf58ce39ec5d5d420df3dd08604eb00
     Pseudo is Ultrasoft + core correction, Zval = 14.0
     Generated by new atomic code, or converted to UPF format
     Using radial grid of  891 points,  6 beta functions with: 
                l(1) =   0
                l(2) =   0
                l(3) =   1
                l(4) =   1
                l(5) =   2
                l(6) =   2
     Q(r) pseudized with  6 coefficients,  rinner =    1.200   1.200   1.200
                                                       1.200   1.200

     atomic species   valence    mass     pseudopotential
        Sn            14.00   118.71000     Sn( 1.00)

      6 Sym. Ops. (no inversion) found



   Cartesian axes

     site n.     atom                  positions (alat units)
         1           Sn  tau(   1) = (   0.0000000   0.5773503   2.1367521  )
         2           Sn  tau(   2) = (   0.5000000   0.2886751   1.7094017  )

     number of k points=    61  Marzari-Vanderbilt smearing, width (Ry)=  0.0200
                       cart. coord. in units 2pi/alat
        k(    1) = (   0.0000000   0.0000000   0.0000000), wk =   0.0034722
        k(    2) = (   0.0000000   0.0481125   0.0000000), wk =   0.0208333
        k(    3) = (   0.0000000   0.0962250   0.0000000), wk =   0.0208333
        k(    4) = (   0.0000000   0.1443376   0.0000000), wk =   0.0208333
        k(    5) = (   0.0000000   0.1924501   0.0000000), wk =   0.0208333
        k(    6) = (   0.0000000   0.2405626   0.0000000), wk =   0.0208333
        k(    7) = (   0.0000000   0.2886751   0.0000000), wk =   0.0208333
        k(    8) = (   0.0000000   0.3367877   0.0000000), wk =   0.0208333
        k(    9) = (   0.0000000   0.3849002   0.0000000), wk =   0.0208333
        k(   10) = (   0.0000000   0.4330127   0.0000000), wk =   0.0208333
        k(   11) = (   0.0000000   0.4811252   0.0000000), wk =   0.0208333
        k(   12) = (   0.0000000   0.5292377   0.0000000), wk =   0.0208333
        k(   13) = (   0.0000000  -0.5773503   0.0000000), wk =   0.0104167
        k(   14) = (   0.0416667   0.0721688   0.0000000), wk =   0.0208333
        k(   15) = (   0.0416667   0.1202813   0.0000000), wk =   0.0416667
        k(   16) = (   0.0416667   0.1683938   0.0000000), wk =   0.0416667
        k(   17) = (   0.0416667   0.2165064   0.0000000), wk =   0.0416667
        k(   18) = (   0.0416667   0.2646189   0.0000000), wk =   0.0416667
        k(   19) = (   0.0416667   0.3127314   0.0000000), wk =   0.0416667
        k(   20) = (   0.0416667   0.3608439   0.0000000), wk =   0.0416667
        k(   21) = (   0.0416667   0.4089564   0.0000000), wk =   0.0416667
        k(   22) = (   0.0416667   0.4570690   0.0000000), wk =   0.0416667
        k(   23) = (   0.0416667   0.5051815   0.0000000), wk =   0.0416667
        k(   24) = (   0.0416667   0.5532940   0.0000000), wk =   0.0416667
        k(   25) = (   0.0833333   0.1443376   0.0000000), wk =   0.0208333
        k(   26) = (   0.0833333   0.1924501   0.0000000), wk =   0.0416667
        k(   27) = (   0.0833333   0.2405626   0.0000000), wk =   0.0416667
        k(   28) = (   0.0833333   0.2886751   0.0000000), wk =   0.0416667
        k(   29) = (   0.0833333   0.3367877   0.0000000), wk =   0.0416667
        k(   30) = (   0.0833333   0.3849002   0.0000000), wk =   0.0416667
        k(   31) = (   0.0833333   0.4330127   0.0000000), wk =   0.0416667
        k(   32) = (   0.0833333   0.4811252   0.0000000), wk =   0.0416667
        k(   33) = (   0.0833333   0.5292377   0.0000000), wk =   0.0416667
        k(   34) = (   0.0833333   0.5773503   0.0000000), wk =   0.0208333
        k(   35) = (   0.1250000   0.2165064   0.0000000), wk =   0.0208333
        k(   36) = (   0.1250000   0.2646189   0.0000000), wk =   0.0416667
        k(   37) = (   0.1250000   0.3127314   0.0000000), wk =   0.0416667
        k(   38) = (   0.1250000   0.3608439   0.0000000), wk =   0.0416667
        k(   39) = (   0.1250000   0.4089564   0.0000000), wk =   0.0416667
        k(   40) = (   0.1250000   0.4570690   0.0000000), wk =   0.0416667
        k(   41) = (   0.1250000   0.5051815   0.0000000), wk =   0.0416667
        k(   42) = (   0.1250000   0.5532940   0.0000000), wk =   0.0416667
        k(   43) = (   0.1666667   0.2886751   0.0000000), wk =   0.0208333
        k(   44) = (   0.1666667   0.3367877   0.0000000), wk =   0.0416667
        k(   45) = (   0.1666667   0.3849002   0.0000000), wk =   0.0416667
        k(   46) = (   0.1666667   0.4330127   0.0000000), wk =   0.0416667
        k(   47) = (   0.1666667   0.4811252   0.0000000), wk =   0.0416667
        k(   48) = (   0.1666667   0.5292377   0.0000000), wk =   0.0416667
        k(   49) = (   0.1666667   0.5773503   0.0000000), wk =   0.0208333
        k(   50) = (   0.2083333   0.3608439   0.0000000), wk =   0.0208333
        k(   51) = (   0.2083333   0.4089564   0.0000000), wk =   0.0416667
        k(   52) = (   0.2083333   0.4570690   0.0000000), wk =   0.0416667
        k(   53) = (   0.2083333   0.5051815   0.0000000), wk =   0.0416667
        k(   54) = (   0.2083333   0.5532940   0.0000000), wk =   0.0416667
        k(   55) = (   0.2500000   0.4330127   0.0000000), wk =   0.0208333
        k(   56) = (   0.2500000   0.4811252   0.0000000), wk =   0.0416667
        k(   57) = (   0.2500000   0.5292377   0.0000000), wk =   0.0416667
        k(   58) = (   0.2500000   0.5773503   0.0000000), wk =   0.0208333
        k(   59) = (   0.2916667   0.5051815   0.0000000), wk =   0.0208333
        k(   60) = (   0.2916667   0.5532940   0.0000000), wk =   0.0416667
        k(   61) = (   0.3333333   0.5773503   0.0000000), wk =   0.0069444

     Dense  grid:   160699 G-vectors     FFT dimensions: (  45,  45, 192)

     Estimated max dynamical RAM per process >     159.08 MB

     Estimated total dynamical RAM >     954.48 MB

     Initial potential from superposition of free atoms

     starting charge   25.99991, renormalised to   28.00000

     negative rho (up, down):  4.192E-03 0.000E+00
     Starting wfcs are   18 randomized atomic wfcs

     total cpu time spent up to now is        5.8 secs

     Self-consistent Calculation

     iteration #  1     ecut=    60.00 Ry     beta= 0.70
     Davidson diagonalization with overlap
     ethr =  1.00E-02,  avg # of iterations =  6.3

     negative rho (up, down):  1.367E-03 0.000E+00

     total cpu time spent up to now is       26.6 secs

     total energy              =    -325.37839580 Ry
     estimated scf accuracy    <       2.51976501 Ry

     iteration #  2     ecut=    60.00 Ry     beta= 0.70
     Davidson diagonalization with overlap
     ethr =  9.00E-03,  avg # of iterations =  2.4

     negative rho (up, down):  1.956E-03 0.000E+00

     total cpu time spent up to now is       44.1 secs

     total energy              =    -326.23997402 Ry
     estimated scf accuracy    <       0.46740812 Ry

     iteration #  3     ecut=    60.00 Ry     beta= 0.70
     Davidson diagonalization with overlap
     ethr =  1.67E-03,  avg # of iterations =  2.0

     negative rho (up, down):  2.266E-03 0.000E+00

     total cpu time spent up to now is       58.3 secs

     total energy              =    -326.32720743 Ry
     estimated scf accuracy    <       0.03513194 Ry

     iteration #  4     ecut=    60.00 Ry     beta= 0.70
     Davidson diagonalization with overlap
     ethr =  1.25E-04,  avg # of iterations =  3.2

     negative rho (up, down):  3.045E-03 0.000E+00

     total cpu time spent up to now is       72.7 secs

     total energy              =    -326.33381583 Ry
     estimated scf accuracy    <       0.00154782 Ry

     iteration #  5     ecut=    60.00 Ry     beta= 0.70
     Davidson diagonalization with overlap
     c_bands:  1 eigenvalues not converged
     ethr =  5.53E-06,  avg # of iterations =  5.3

     negative rho (up, down):  3.074E-03 0.000E+00

     total cpu time spent up to now is       91.7 secs

     total energy              =    -326.33383365 Ry
     estimated scf accuracy    <       0.00167535 Ry

     iteration #  6     ecut=    60.00 Ry     beta= 0.70
     Davidson diagonalization with overlap
     ethr =  5.53E-06,  avg # of iterations =  2.9

     negative rho (up, down):  3.053E-03 0.000E+00

     total cpu time spent up to now is      107.1 secs

     total energy              =    -326.33409689 Ry
     estimated scf accuracy    <       0.00068156 Ry

     iteration #  7     ecut=    60.00 Ry     beta= 0.70
     Davidson diagonalization with overlap
     ethr =  2.43E-06,  avg # of iterations =  1.5

     negative rho (up, down):  3.055E-03 0.000E+00

     total cpu time spent up to now is      120.8 secs

     total energy              =    -326.33416522 Ry
     estimated scf accuracy    <       0.00000673 Ry

     iteration #  8     ecut=    60.00 Ry     beta= 0.70
     Davidson diagonalization with overlap
     ethr =  2.40E-08,  avg # of iterations =  3.2

     negative rho (up, down):  3.056E-03 0.000E+00

     total cpu time spent up to now is      138.6 secs

     total energy              =    -326.33416751 Ry
     estimated scf accuracy    <       0.00000052 Ry

     iteration #  9     ecut=    60.00 Ry     beta= 0.70
     Davidson diagonalization with overlap
     ethr =  1.87E-09,  avg # of iterations =  2.0

     negative rho (up, down):  3.057E-03 0.000E+00

     total cpu time spent up to now is      152.4 secs

     total energy              =    -326.33416751 Ry
     estimated scf accuracy    <       0.00000011 Ry

     iteration # 10     ecut=    60.00 Ry     beta= 0.70
     Davidson diagonalization with overlap
     ethr =  3.89E-10,  avg # of iterations =  2.1

     negative rho (up, down):  3.058E-03 0.000E+00

     total cpu time spent up to now is      166.3 secs

     total energy              =    -326.33416752 Ry
     estimated scf accuracy    <          4.1E-09 Ry

     iteration # 11     ecut=    60.00 Ry     beta= 0.70
     Davidson diagonalization with overlap
     ethr =  1.46E-11,  avg # of iterations =  3.4

     negative rho (up, down):  3.058E-03 0.000E+00

     total cpu time spent up to now is      182.3 secs

     End of self-consistent calculation

          k = 0.0000 0.0000 0.0000 ( 20001 PWs)   bands (ev):

   -23.4266 -23.4266 -23.3907 -23.3858 -23.3858 -23.3464 -23.3437 -23.3437
   -23.3158 -23.3158  -9.9828  -7.0769  -1.9503  -0.9353  -0.9353  -0.2829
     0.9014   1.4209

          k = 0.0000 0.0481 0.0000 ( 20007 PWs)   bands (ev):

   -23.4266 -23.4262 -23.3905 -23.3857 -23.3855 -23.3465 -23.3438 -23.3437
   -23.3162 -23.3158  -9.9702  -7.0772  -1.9444  -1.1426  -0.9663  -0.1033
     0.8382   0.9241

          k = 0.0000 0.0962 0.0000 ( 19993 PWs)   bands (ev):

   -23.4264 -23.4251 -23.3901 -23.3856 -23.3849 -23.3468 -23.3442 -23.3438
   -23.3176 -23.3158  -9.9325  -7.0790  -1.9282  -1.5145  -1.0513   0.1536
     0.7160   1.4984

          k = 0.0000 0.1443 0.0000 ( 20039 PWs)   bands (ev):

   -23.4262 -23.4231 -23.3896 -23.3853 -23.3838 -23.3473 -23.3449 -23.3438
   -23.3198 -23.3159  -9.8703  -7.0850  -1.9200  -1.8904  -1.1730   0.1920
     0.7415   1.0587

          k = 0.0000 0.1925 0.0000 ( 20061 PWs)   bands (ev):

   -23.4259 -23.4205 -23.3892 -23.3844 -23.3823 -23.3482 -23.3458 -23.3439
   -23.3229 -23.3160  -9.7842  -7.0994  -2.2786  -1.8842  -1.3128   0.0205
     0.9137   1.1301

          k = 0.0000 0.2406 0.0000 ( 20045 PWs)   bands (ev):

   -23.4256 -23.4171 -23.3892 -23.3830 -23.3805 -23.3493 -23.3470 -23.3438
   -23.3266 -23.3161  -9.6756  -7.1281  -2.6151  -1.8801  -1.4566  -0.1691
     1.0565   1.8372

          k = 0.0000 0.2887 0.0000 ( 20055 PWs)   bands (ev):

   -23.4252 -23.4132 -23.3893 -23.3810 -23.3783 -23.3508 -23.3484 -23.3438
   -23.3310 -23.3163  -9.5464  -7.1772  -2.9027  -1.9089  -1.5943  -0.3102
     1.1148   1.2168

          k = 0.0000 0.3368 0.0000 ( 20085 PWs)   bands (ev):

   -23.4248 -23.4088 -23.3896 -23.3786 -23.3759 -23.3526 -23.3501 -23.3438
   -23.3357 -23.3164  -9.3995  -7.2519  -3.1315  -1.9827  -1.7188  -0.3754
     1.0737   1.2295

          k = 0.0000 0.3849 0.0000 ( 20131 PWs)   bands (ev):

   -23.4245 -23.4041 -23.3899 -23.3759 -23.3733 -23.3547 -23.3521 -23.3444
   -23.3402 -23.3165  -9.2395  -7.3535  -3.2973  -2.0973  -1.8256  -0.3613
     0.9534   1.2280

          k = 0.0000 0.4330 0.0000 ( 20143 PWs)   bands (ev):

   -23.4242 -23.3994 -23.3902 -23.3731 -23.3706 -23.3569 -23.3543 -23.3474
   -23.3422 -23.3166  -9.0740  -7.4770  -3.4025  -2.2314  -1.9114  -0.2828
     0.7890   1.2189

          k = 0.0000 0.4811 0.0000 ( 20129 PWs)   bands (ev):

   -23.4240 -23.3951 -23.3903 -23.3701 -23.3678 -23.3593 -23.3566 -23.3519
   -23.3426 -23.3167  -8.9168  -7.6078  -3.4574  -2.3572  -1.9741  -0.1607
     0.6082   1.2081

          k = 0.0000 0.5292 0.0000 ( 20120 PWs)   bands (ev):

   -23.4239 -23.3920 -23.3902 -23.3673 -23.3650 -23.3615 -23.3591 -23.3557
   -23.3426 -23.3167  -8.7936  -7.7171  -3.4784  -2.4475  -2.0122  -0.0196
     0.4340   1.1998

          k = 0.0000-0.5774 0.0000 ( 20096 PWs)   bands (ev):

   -23.4238 -23.3912 -23.3897 -23.3655 -23.3631 -23.3628 -23.3610 -23.3574
   -23.3426 -23.3167  -8.7443  -7.7622  -3.4828  -2.4806  -2.0250   0.0702
     0.3337   1.1968

          k = 0.0417 0.0722 0.0000 ( 20005 PWs)   bands (ev):

   -23.4265 -23.4255 -23.3902 -23.3857 -23.3851 -23.3467 -23.3440 -23.3438
   -23.3171 -23.3158  -9.9451  -7.0783  -1.9333  -1.4068  -1.0316   0.1059
     0.7310   0.9714

          k = 0.0417 0.1203 0.0000 ( 20013 PWs)   bands (ev):

   -23.4263 -23.4239 -23.3897 -23.3856 -23.3841 -23.3471 -23.3445 -23.3439
   -23.3189 -23.3159  -9.8951  -7.0821  -1.9144  -1.7572  -1.1514   0.2913
     0.6206   1.0510

          k = 0.0417 0.1684 0.0000 ( 20052 PWs)   bands (ev):

   -23.4260 -23.4216 -23.3892 -23.3851 -23.3827 -23.3479 -23.3452 -23.3440
   -23.3216 -23.3160  -9.8209  -7.0923  -2.1202  -1.8924  -1.2989   0.1959
     0.7380   1.1338

          k = 0.0417 0.2165 0.0000 ( 20055 PWs)   bands (ev):

   -23.4257 -23.4186 -23.3890 -23.3842 -23.3810 -23.3489 -23.3462 -23.3440
   -23.3250 -23.3161  -9.7235  -7.1138  -2.4623  -1.8825  -1.4521   0.0003
     0.9119   1.1976

          k = 0.0417 0.2646 0.0000 ( 20075 PWs)   bands (ev):

   -23.4254 -23.4150 -23.3890 -23.3826 -23.3789 -23.3504 -23.3474 -23.3439
   -23.3290 -23.3162  -9.6045  -7.1527  -2.7665  -1.9021  -1.5928  -0.1701
     1.0356   1.2235

          k = 0.0417 0.3127 0.0000 ( 20077 PWs)   bands (ev):

   -23.4250 -23.4108 -23.3892 -23.3805 -23.3765 -23.3521 -23.3489 -23.3439
   -23.3335 -23.3164  -9.4662  -7.2148  -3.0198  -1.9688  -1.7103  -0.2789
     1.0941   1.1977

          k = 0.0417 0.3608 0.0000 ( 20090 PWs)   bands (ev):

   -23.4246 -23.4063 -23.3895 -23.3781 -23.3739 -23.3541 -23.3507 -23.3441
   -23.3382 -23.3165  -9.3122  -7.3035  -3.2140  -2.0755  -1.8125  -0.3105
     1.0451   1.1707

          k = 0.0417 0.4090 0.0000 ( 20107 PWs)   bands (ev):

   -23.4243 -23.4015 -23.3898 -23.3754 -23.3711 -23.3563 -23.3527 -23.3457
   -23.3418 -23.3166  -9.1484  -7.4175  -3.3477  -2.1982  -1.9087  -0.2690
     0.8990   1.1690

          k = 0.0417 0.4571 0.0000 ( 20118 PWs)   bands (ev):

   -23.4241 -23.3969 -23.3900 -23.3725 -23.3683 -23.3587 -23.3550 -23.3498
   -23.3426 -23.3167  -8.9847  -7.5474  -3.4266  -2.3177  -1.9918  -0.1707
     0.7208   1.1649

          k = 0.0417 0.5052 0.0000 ( 20132 PWs)   bands (ev):

   -23.4239 -23.3930 -23.3901 -23.3696 -23.3655 -23.3611 -23.3574 -23.3540
   -23.3427 -23.3168  -8.8400  -7.6723  -3.4638  -2.4156  -2.0515  -0.0354
     0.5352   1.1597

          k = 0.0417 0.5533 0.0000 ( 20126 PWs)   bands (ev):

   -23.4238 -23.3911 -23.3896 -23.3669 -23.3641 -23.3620 -23.3597 -23.3570
   -23.3427 -23.3168  -8.7481  -7.7554  -3.4761  -2.4718  -2.0822   0.1091
     0.3671   1.1564

          k = 0.0833 0.1443 0.0000 ( 20045 PWs)   bands (ev):

   -23.4261 -23.4220 -23.3892 -23.3855 -23.3828 -23.3478 -23.3449 -23.3441
   -23.3211 -23.3160  -9.8332  -7.0901  -2.0502  -1.8972  -1.3201   0.4452
     0.4886   1.1449

          k = 0.0833 0.1925 0.0000 ( 20059 PWs)   bands (ev):

   -23.4258 -23.4193 -23.3886 -23.3852 -23.3810 -23.3488 -23.3455 -23.3443
   -23.3241 -23.3161  -9.7476  -7.1073  -2.3528  -1.8903  -1.5053   0.2596
     0.6754   1.2196

          k = 0.0833 0.2406 0.0000 ( 20083 PWs)   bands (ev):

   -23.4255 -23.4160 -23.3884 -23.3842 -23.3789 -23.3502 -23.3464 -23.3443
   -23.3277 -23.3163  -9.6397  -7.1390  -2.6407  -1.9225  -1.6584   0.0797
     0.8361   1.2555

          k = 0.0833 0.2887 0.0000 ( 20094 PWs)   bands (ev):

   -23.4251 -23.4121 -23.3884 -23.3827 -23.3765 -23.3520 -23.3476 -23.3443
   -23.3320 -23.3164  -9.5112  -7.1910  -2.8955  -2.0222  -1.7499  -0.0607
     0.9472   1.2391

          k = 0.0833 0.3368 0.0000 ( 20094 PWs)   bands (ev):

   -23.4248 -23.4078 -23.3886 -23.3806 -23.3738 -23.3540 -23.3491 -23.3444
   -23.3366 -23.3166  -9.3651  -7.2679  -3.1046  -2.1516  -1.8224  -0.1399
     1.0068   1.1646

          k = 0.0833 0.3849 0.0000 ( 20088 PWs)   bands (ev):

   -23.4245 -23.4031 -23.3889 -23.3782 -23.3710 -23.3562 -23.3509 -23.3450
   -23.3408 -23.3168  -9.2057  -7.3709  -3.2611  -2.2704  -1.9141  -0.1483
     0.9952   1.0741

          k = 0.0833 0.4330 0.0000 ( 20111 PWs)   bands (ev):

   -23.4242 -23.3984 -23.3892 -23.3755 -23.3682 -23.3586 -23.3531 -23.3480
   -23.3428 -23.3169  -9.0405  -7.4951  -3.3658  -2.3645  -2.0230  -0.0917
     0.8529   1.0626

          k = 0.0833 0.4811 0.0000 ( 20119 PWs)   bands (ev):

   -23.4240 -23.3940 -23.3893 -23.3727 -23.3654 -23.3611 -23.3556 -23.3521
   -23.3431 -23.3170  -8.8828  -7.6265  -3.4260  -2.4295  -2.1297   0.0151
     0.6779   1.0607

          k = 0.0833 0.5292 0.0000 ( 20109 PWs)   bands (ev):

   -23.4238 -23.3908 -23.3892 -23.3698 -23.3644 -23.3619 -23.3582 -23.3556
   -23.3431 -23.3170  -8.7582  -7.7370  -3.4541  -2.4653  -2.2094   0.1564
     0.4981   1.0587

          k = 0.0833 0.5774 0.0000 ( 20128 PWs)   bands (ev):

   -23.4238 -23.3901 -23.3887 -23.3674 -23.3663 -23.3599 -23.3597 -23.3576
   -23.3431 -23.3171  -8.7079  -7.7829  -3.4619  -2.4760  -2.2394   0.3031
     0.3390   1.0579

          k = 0.1250 0.2165 0.0000 ( 20077 PWs)   bands (ev):

   -23.4255 -23.4164 -23.3879 -23.3851 -23.3789 -23.3502 -23.3458 -23.3446
   -23.3273 -23.3163  -9.6514  -7.1346  -2.5837  -1.9417  -1.6908   0.2512
     0.6848   1.2696

          k = 0.1250 0.2646 0.0000 ( 20086 PWs)   bands (ev):

   -23.4252 -23.4128 -23.3874 -23.3844 -23.3764 -23.3519 -23.3465 -23.3448
   -23.3312 -23.3165  -9.5338  -7.1794  -2.8001  -2.0993  -1.7706   0.1615
     0.7571   1.2819

          k = 0.1250 0.3127 0.0000 ( 20092 PWs)   bands (ev):

   -23.4249 -23.4087 -23.3874 -23.3829 -23.3738 -23.3540 -23.3477 -23.3449
   -23.3354 -23.3167  -9.3971  -7.2466  -2.9919  -2.2778  -1.8209   0.0729
     0.8083   1.2604

          k = 0.1250 0.3608 0.0000 ( 20080 PWs)   bands (ev):

   -23.4245 -23.4042 -23.3876 -23.3809 -23.3709 -23.3562 -23.3493 -23.3452
   -23.3398 -23.3169  -9.2447  -7.3388  -3.1511  -2.4221  -1.8957   0.0264
     0.8149   1.2078

          k = 0.1250 0.4090 0.0000 ( 20114 PWs)   bands (ev):

   -23.4243 -23.3995 -23.3879 -23.3784 -23.3680 -23.3587 -23.3514 -23.3468
   -23.3429 -23.3171  -9.0819  -7.4546  -3.2733  -2.5182  -2.0034   0.0332
     0.7849   1.1330

          k = 0.1250 0.4571 0.0000 ( 20113 PWs)   bands (ev):

   -23.4240 -23.3948 -23.3881 -23.3758 -23.3651 -23.3613 -23.3541 -23.3501
   -23.3436 -23.3173  -8.9182  -7.5855  -3.3590  -2.5622  -2.1342   0.0861
     0.7292   1.0549

          k = 0.1250 0.5052 0.0000 ( 20113 PWs)   bands (ev):

   -23.4239 -23.3908 -23.3882 -23.3729 -23.3644 -23.3619 -23.3574 -23.3533
   -23.3438 -23.3174  -8.7715  -7.7122  -3.4122  -2.5541  -2.2706   0.1647
     0.6571   0.9937

          k = 0.1250 0.5533 0.0000 ( 20114 PWs)   bands (ev):

   -23.4238 -23.3889 -23.3876 -23.3700 -23.3670 -23.3601 -23.3590 -23.3561
   -23.3438 -23.3174  -8.6764  -7.7982  -3.4374  -2.5003  -2.3923   0.2328
     0.5943   0.9616

          k = 0.1667 0.2887 0.0000 ( 20089 PWs)   bands (ev):

   -23.4249 -23.4090 -23.3864 -23.3843 -23.3737 -23.3540 -23.3470 -23.3454
   -23.3350 -23.3168  -9.4079  -7.2395  -2.9359  -2.3439  -1.8187   0.1963
     0.6900   1.2986

          k = 0.1667 0.3368 0.0000 ( 20084 PWs)   bands (ev):

   -23.4246 -23.4048 -23.3860 -23.3832 -23.3709 -23.3563 -23.3481 -23.3457
   -23.3392 -23.3170  -9.2644  -7.3225  -3.0516  -2.5563  -1.8804   0.1941
     0.6335   1.3045

          k = 0.1667 0.3849 0.0000 ( 20093 PWs)   bands (ev):

   -23.4243 -23.4002 -23.3861 -23.3812 -23.3679 -23.3588 -23.3501 -23.3463
   -23.3428 -23.3173  -9.1074  -7.4290  -3.1576  -2.6979  -1.9738   0.1821
     0.5956   1.2797

          k = 0.1667 0.4330 0.0000 ( 20113 PWs)   bands (ev):

   -23.4241 -23.3954 -23.3863 -23.3787 -23.3650 -23.3614 -23.3530 -23.3484
   -23.3444 -23.3175  -8.9434  -7.5547  -3.2590  -2.7546  -2.0976   0.1704
     0.5953   1.2147

          k = 0.1667 0.4811 0.0000 ( 20107 PWs)   bands (ev):

   -23.4239 -23.3909 -23.3865 -23.3760 -23.3644 -23.3619 -23.3568 -23.3511
   -23.3446 -23.3177  -8.7843  -7.6879  -3.3450  -2.7374  -2.2407   0.1573
     0.6442   1.1158

          k = 0.1667 0.5292 0.0000 ( 20106 PWs)   bands (ev):

   -23.4238 -23.3876 -23.3864 -23.3731 -23.3672 -23.3604 -23.3590 -23.3536
   -23.3447 -23.3178  -8.6547  -7.8029  -3.4015  -2.6682  -2.3848   0.1455
     0.7346   0.9972

          k = 0.1667 0.5774 0.0000 ( 20103 PWs)   bands (ev):

   -23.4238 -23.3870 -23.3856 -23.3706 -23.3697 -23.3618 -23.3567 -23.3558
   -23.3447 -23.3178  -8.6005  -7.8525  -3.4210  -2.6004  -2.4777   0.1407
     0.8198   0.9031

          k = 0.2083 0.3608 0.0000 ( 20087 PWs)   bands (ev):

   -23.4243 -23.4004 -23.3846 -23.3830 -23.3679 -23.3588 -23.3495 -23.3463
   -23.3427 -23.3174  -9.1160  -7.4202  -3.0801  -2.8002  -1.9617   0.2994
     0.4599   1.3402

          k = 0.2083 0.4090 0.0000 ( 20099 PWs)   bands (ev):

   -23.4241 -23.3957 -23.3843 -23.3814 -23.3649 -23.3615 -23.3525 -23.3472
   -23.3451 -23.3177  -8.9564  -7.5382  -3.1285  -2.9415  -2.0707   0.2705
     0.4449   1.3341

          k = 0.2083 0.4571 0.0000 ( 20115 PWs)   bands (ev):

   -23.4239 -23.3910 -23.3844 -23.3790 -23.3644 -23.3619 -23.3565 -23.3490
   -23.3458 -23.3179  -8.7934  -7.6703  -3.2506  -2.9215  -2.2031   0.1485
     0.5706   1.2753

          k = 0.2083 0.5052 0.0000 ( 20122 PWs)   bands (ev):

   -23.4238 -23.3868 -23.3845 -23.3763 -23.3674 -23.3606 -23.3590 -23.3513
   -23.3459 -23.3181  -8.6420  -7.8016  -3.3545  -2.8366  -2.3462   0.0618
     0.7152   1.1718

          k = 0.2083 0.5533 0.0000 ( 20133 PWs)   bands (ev):

   -23.4237 -23.3848 -23.3836 -23.3734 -23.3703 -23.3635 -23.3563 -23.3536
   -23.3459 -23.3182  -8.5374  -7.8964  -3.4090  -2.7414  -2.4698   0.0177
     0.8615   1.0441

          k = 0.2500 0.4330 0.0000 ( 20133 PWs)   bands (ev):

   -23.4239 -23.3911 -23.3825 -23.3813 -23.3644 -23.3619 -23.3563 -23.3476
   -23.3469 -23.3180  -8.7966  -7.6639  -3.1679  -3.0366  -2.1879   0.1448
     0.5400   1.3387

          k = 0.2500 0.4811 0.0000 ( 20115 PWs)   bands (ev):

   -23.4238 -23.3864 -23.3822 -23.3792 -23.3674 -23.3607 -23.3590 -23.3492
   -23.3474 -23.3183  -8.6363  -7.7993  -3.3106  -2.9466  -2.3201   0.0100
     0.6932   1.2860

          k = 0.2500 0.5292 0.0000 ( 20109 PWs)   bands (ev):

   -23.4237 -23.3825 -23.3821 -23.3764 -23.3704 -23.3647 -23.3562 -23.3513
   -23.3474 -23.3185  -8.4947  -7.9257  -3.4019  -2.8357  -2.4529  -0.0762
     0.8476   1.1898

          k = 0.2500 0.5774 0.0000 ( 20109 PWs)   bands (ev):

   -23.4237 -23.3823 -23.3804 -23.3739 -23.3730 -23.3666 -23.3540 -23.3533
   -23.3474 -23.3185  -8.4275  -7.9878  -3.4329  -2.7669  -2.5289  -0.1055
     0.9450   1.1111

          k = 0.2917 0.5052 0.0000 ( 20105 PWs)   bands (ev):

   -23.4237 -23.3818 -23.3799 -23.3790 -23.3705 -23.3651 -23.3562 -23.3492
   -23.3491 -23.3186  -8.4795  -7.9361  -3.3996  -2.8685  -2.4450  -0.1109
     0.8434   1.2417

          k = 0.2917 0.5533 0.0000 ( 20115 PWs)   bands (ev):

   -23.4237 -23.3796 -23.3779 -23.3766 -23.3735 -23.3690 -23.3537 -23.3513
   -23.3492 -23.3187  -8.3462  -8.0590  -3.4532  -2.7670  -2.5612  -0.1765
     0.9786   1.1605

          k = 0.3333 0.5774 0.0000 ( 20085 PWs)   bands (ev):

   -23.4237 -23.3771 -23.3771 -23.3757 -23.3735 -23.3734 -23.3515 -23.3515
   -23.3509 -23.3188  -8.2000  -8.2000  -3.4739  -2.6688  -2.6688  -0.2124
     1.0871   1.0871

     the Fermi energy is    -2.0914 ev

!    total energy              =    -326.33416752 Ry
     estimated scf accuracy    <          1.5E-10 Ry
     smearing contrib. (-TS)   =      -0.00070771 Ry
     internal energy E=F+TS    =    -326.33345982 Ry

     The total energy is F=E-TS. E is the sum of the following terms:
     one-electron contribution =    -762.98373823 Ry
     hartree contribution      =     389.16030203 Ry
     xc contribution           =     -94.73444950 Ry
     ewald contribution        =     142.22442588 Ry

     convergence has been achieved in  11 iterations

     negative rho (up, down):  3.058E-03 0.000E+00

     Forces acting on atoms (cartesian axes, Ry/au):

     atom    1 type  1   force =     0.00000000   -0.00000000   -0.04442060
     atom    2 type  1   force =     0.00000000    0.00000000    0.04442060

     Total force =     0.044421     Total SCF correction =     0.000006


     Computing stress (Cartesian axis) and pressure


     negative rho (up, down):  3.058E-03 0.000E+00
          total   stress  (Ry/bohr**3)                   (kbar)     P=      -12.84
  -0.00009857   0.00000000   0.00000000          -14.50        0.00        0.00
   0.00000000  -0.00009857   0.00000000            0.00      -14.50        0.00
   0.00000000   0.00000000  -0.00006463            0.00        0.00       -9.51


     BFGS Geometry Optimization
     Energy error            =      0.0E+00
     Gradient error          =      4.4E-02
     Cell gradient error     =      9.9E-05


     number of scf cycles    =   1
     number of bfgs steps    =   0

     enthalpy new            =    -326.3341675249 Ry

     new trust radius        =       0.0444205997 bohr
     new conv_thr            =       0.0000000010 Ry

     new unit-cell volume =   2547.45144 a.u.^3 (   377.49336 Ang^3 )
     density =      1.04438 g/cm^3

CELL_PARAMETERS (alat=  8.84391826)
   0.997535797   0.000000000   0.000000000
  -0.498767898   0.863891341   0.000000000
   0.000000000   0.000000000   4.273504274

ATOMIC_POSITIONS (crystal)
Sn            0.3333333330        0.6666666660        0.5000000000    0   0   0
Sn            0.6666666660        0.3333333330        0.4011753185



     Writing output data file ../tmp/stanene.save/
     NEW-OLD atomic charge density approx. for the potential

     negative rho (up, down):  2.991E-03 0.000E+00
     extrapolated charge   27.87139, renormalised to   28.00000

     total cpu time spent up to now is      189.9 secs

     Self-consistent Calculation

     iteration #  1     ecut=    60.00 Ry     beta= 0.70
     Davidson diagonalization with overlap
     ethr =  1.00E-06,  avg # of iterations =  7.0

     negative rho (up, down):  3.235E-03 0.000E+00

     total cpu time spent up to now is      221.9 secs

     total energy              =    -326.32215167 Ry
     estimated scf accuracy    <       0.01304248 Ry

     iteration #  2     ecut=    60.00 Ry     beta= 0.70
     Davidson diagonalization with overlap
     ethr =  4.66E-05,  avg # of iterations =  6.6

     negative rho (up, down):  3.063E-03 0.000E+00

     total cpu time spent up to now is      248.2 secs

     total energy              =    -326.33199024 Ry
     estimated scf accuracy    <       0.05680233 Ry

     iteration #  3     ecut=    60.00 Ry     beta= 0.70
     Davidson diagonalization with overlap
     ethr =  4.66E-05,  avg # of iterations =  4.1

     negative rho (up, down):  3.040E-03 0.000E+00

     total cpu time spent up to now is      264.7 secs

     total energy              =    -326.33721884 Ry
     estimated scf accuracy    <       0.01357249 Ry

     iteration #  4     ecut=    60.00 Ry     beta= 0.70
     Davidson diagonalization with overlap
     ethr =  4.66E-05,  avg # of iterations =  1.2

     negative rho (up, down):  3.033E-03 0.000E+00

     total cpu time spent up to now is      277.9 secs

     total energy              =    -326.33767334 Ry
     estimated scf accuracy    <       0.00275514 Ry

     iteration #  5     ecut=    60.00 Ry     beta= 0.70
     Davidson diagonalization with overlap
     ethr =  9.84E-06,  avg # of iterations =  2.2

     negative rho (up, down):  3.024E-03 0.000E+00

     total cpu time spent up to now is      292.7 secs

     total energy              =    -326.33726765 Ry
     estimated scf accuracy    <       0.00124436 Ry

     iteration #  6     ecut=    60.00 Ry     beta= 0.70
     Davidson diagonalization with overlap
     ethr =  4.44E-06,  avg # of iterations =  3.4

     negative rho (up, down):  3.020E-03 0.000E+00

     total cpu time spent up to now is      310.8 secs

     total energy              =    -326.33738049 Ry
     estimated scf accuracy    <       0.00010267 Ry

     iteration #  7     ecut=    60.00 Ry     beta= 0.70
     Davidson diagonalization with overlap
     ethr =  3.67E-07,  avg # of iterations =  2.1

     negative rho (up, down):  3.018E-03 0.000E+00

     total cpu time spent up to now is      325.8 secs

     total energy              =    -326.33738052 Ry
     estimated scf accuracy    <       0.00003592 Ry

     iteration #  8     ecut=    60.00 Ry     beta= 0.70
     Davidson diagonalization with overlap
     ethr =  1.28E-07,  avg # of iterations =  1.6

     negative rho (up, down):  3.017E-03 0.000E+00

     total cpu time spent up to now is      340.1 secs

     total energy              =    -326.33737612 Ry
     estimated scf accuracy    <       0.00001497 Ry

     iteration #  9     ecut=    60.00 Ry     beta= 0.70
     Davidson diagonalization with overlap
     ethr =  5.35E-08,  avg # of iterations =  2.0

     negative rho (up, down):  3.015E-03 0.000E+00

     total cpu time spent up to now is      356.6 secs

     total energy              =    -326.33737730 Ry
     estimated scf accuracy    <       0.00000108 Ry

     iteration # 10     ecut=    60.00 Ry     beta= 0.70
     Davidson diagonalization with overlap
     ethr =  3.86E-09,  avg # of iterations =  2.8

     negative rho (up, down):  3.015E-03 0.000E+00

     total cpu time spent up to now is      372.8 secs

     total energy              =    -326.33737761 Ry
     estimated scf accuracy    <       0.00000002 Ry

     iteration # 11     ecut=    60.00 Ry     beta= 0.70
     Davidson diagonalization with overlap
     ethr =  7.32E-11,  avg # of iterations =  2.6

     negative rho (up, down):  3.016E-03 0.000E+00

     total cpu time spent up to now is      388.2 secs

     End of self-consistent calculation

          k = 0.0000 0.0000 0.0000 ( 20001 PWs)   bands (ev):

   -23.4054 -23.4054 -23.3690 -23.3613 -23.3613 -23.3223 -23.3162 -23.3162
   -23.2880 -23.2880 -10.0084  -7.0284  -1.9179  -0.9285  -0.9285  -0.2588
     0.9476   0.9476

          k =-0.0000 0.0482 0.0000 ( 20007 PWs)   bands (ev):

   -23.4053 -23.4050 -23.3688 -23.3612 -23.3610 -23.3223 -23.3164 -23.3163
   -23.2885 -23.2881  -9.9956  -7.0288  -1.9119  -1.1374  -0.9598  -0.0774
     0.8840   0.9712

          k =-0.0000 0.0965 0.0000 ( 19993 PWs)   bands (ev):

   -23.4052 -23.4037 -23.3684 -23.3611 -23.3603 -23.3226 -23.3168 -23.3164
   -23.2900 -23.2881  -9.9575  -7.0307  -1.8955  -1.5134  -1.0460   0.1838
     0.7615   1.5095

          k =-0.0000 0.1447 0.0000 ( 20039 PWs)   bands (ev):

   -23.4050 -23.4017 -23.3677 -23.3609 -23.3592 -23.3231 -23.3175 -23.3165
   -23.2923 -23.2882  -9.8943  -7.0370  -1.9131  -1.8676  -1.1692   0.2265
     0.7868   1.5949

          k =-0.0000 0.1929 0.0000 ( 20061 PWs)   bands (ev):

   -23.4046 -23.3989 -23.3671 -23.3603 -23.3576 -23.3238 -23.3185 -23.3167
   -23.2955 -23.2883  -9.8070  -7.0522  -2.2852  -1.8513  -1.3108   0.0566
     0.9609   1.1870

          k =-0.0000 0.2412 0.0000 ( 20045 PWs)   bands (ev):

   -23.4043 -23.3953 -23.3667 -23.3591 -23.3556 -23.3249 -23.3198 -23.3168
   -23.2995 -23.2884  -9.6968  -7.0824  -2.6242  -1.8472  -1.4563  -0.1333
     1.1064   1.2448

          k =-0.0000 0.2894 0.0000 ( 20055 PWs)   bands (ev):

   -23.4039 -23.3912 -23.3665 -23.3573 -23.3533 -23.3263 -23.3214 -23.3169
   -23.3041 -23.2885  -9.5657  -7.1340  -2.9128  -1.8765  -1.5956  -0.2747
     1.1662   1.2801

          k =-0.0000 0.3376 0.0000 ( 20085 PWs)   bands (ev):

   -23.4035 -23.3866 -23.3666 -23.3551 -23.3508 -23.3280 -23.3232 -23.3172
   -23.3090 -23.2886  -9.4164  -7.2122  -3.1410  -1.9516  -1.7215  -0.3400
     1.1245   1.2948

          k =-0.0000 0.3859 0.0000 ( 20131 PWs)   bands (ev):

   -23.4032 -23.3816 -23.3667 -23.3524 -23.3480 -23.3301 -23.3253 -23.3183
   -23.3133 -23.2887  -9.2537  -7.3185  -3.3047  -2.0683  -1.8295  -0.3257
     1.0024   1.2945

          k =-0.0000 0.4341 0.0000 ( 20143 PWs)   bands (ev):

   -23.4029 -23.3767 -23.3669 -23.3495 -23.3451 -23.3323 -23.3277 -23.3220
   -23.3151 -23.2888  -9.0852  -7.4475  -3.4066  -2.2048  -1.9163  -0.2470
     0.8369   1.2862

          k =-0.0000 0.4823 0.0000 ( 20129 PWs)   bands (ev):

   -23.4027 -23.3723 -23.3668 -23.3465 -23.3421 -23.3347 -23.3302 -23.3267
   -23.3155 -23.2889  -8.9249  -7.5836  -3.4579  -2.3331  -1.9796  -0.1255
     0.6563   1.2758

          k =-0.0000 0.5305 0.0000 ( 20120 PWs)   bands (ev):

   -23.4025 -23.3694 -23.3662 -23.3436 -23.3391 -23.3369 -23.3329 -23.3308
   -23.3156 -23.2889  -8.7990  -7.6971  -3.4761  -2.4255  -2.0181   0.0129
     0.4848   1.2677

          k = 0.0000-0.5788 0.0000 ( 20096 PWs)   bands (ev):

   -23.4025 -23.3688 -23.3656 -23.3418 -23.3383 -23.3368 -23.3351 -23.3325
   -23.3156 -23.2889  -8.7486  -7.7439  -3.4794  -2.4594  -2.0310   0.0974
     0.3898   1.2647

          k = 0.0418 0.0723 0.0000 ( 20005 PWs)   bands (ev):

   -23.4052 -23.4041 -23.3685 -23.3612 -23.3605 -23.3225 -23.3166 -23.3163
   -23.2895 -23.2881  -9.9702  -7.0299  -1.9007  -1.4045  -1.0260   0.1349
     0.7763   1.0204

          k = 0.0418 0.1206 0.0000 ( 20013 PWs)   bands (ev):

   -23.4051 -23.4025 -23.3679 -23.3611 -23.3595 -23.3229 -23.3172 -23.3165
   -23.2914 -23.2882  -9.9195  -7.0340  -1.8817  -1.7587  -1.1472   0.3245
     0.6653   1.1031

          k = 0.0418 0.1688 0.0000 ( 20052 PWs)   bands (ev):

   -23.4048 -23.4001 -23.3673 -23.3608 -23.3581 -23.3235 -23.3180 -23.3167
   -23.2942 -23.2883  -9.8443  -7.0447  -2.1254  -1.8596  -1.2963   0.2331
     0.7825   1.1894

          k = 0.0418 0.2170 0.0000 ( 20055 PWs)   bands (ev):

   -23.4044 -23.3969 -23.3667 -23.3600 -23.3563 -23.3245 -23.3191 -23.3168
   -23.2978 -23.2884  -9.7455  -7.0673  -2.4705  -1.8498  -1.4509   0.0377
     0.9597   1.2562

          k = 0.0418 0.2653 0.0000 ( 20075 PWs)   bands (ev):

   -23.4041 -23.3931 -23.3663 -23.3587 -23.3541 -23.3257 -23.3204 -23.3169
   -23.3020 -23.2885  -9.6246  -7.1082  -2.7763  -1.8710  -1.5919  -0.1333
     1.0872   1.2841

          k = 0.0418 0.3135 0.0000 ( 20077 PWs)   bands (ev):

   -23.4037 -23.3887 -23.3663 -23.3567 -23.3516 -23.3274 -23.3221 -23.3171
   -23.3068 -23.2886  -9.4842  -7.1733  -3.0297  -1.9418  -1.7079  -0.2424
     1.1467   1.2599

          k = 0.0418 0.3617 0.0000 ( 20090 PWs)   bands (ev):

   -23.4033 -23.3839 -23.3664 -23.3544 -23.3488 -23.3293 -23.3240 -23.3176
   -23.3115 -23.2888  -9.3276  -7.2663  -3.2225  -2.0518  -1.8097  -0.2739
     1.0955   1.2353

          k = 0.0418 0.4100 0.0000 ( 20107 PWs)   bands (ev):

   -23.4030 -23.3789 -23.3666 -23.3516 -23.3459 -23.3316 -23.3262 -23.3199
   -23.3147 -23.2889  -9.1609  -7.3853  -3.3534  -2.1756  -1.9083  -0.2318
     0.9480   1.2342

          k = 0.0418 0.4582 0.0000 ( 20118 PWs)   bands (ev):

   -23.4028 -23.3741 -23.3666 -23.3487 -23.3429 -23.3339 -23.3287 -23.3244
   -23.3155 -23.2889  -8.9941  -7.5207  -3.4289  -2.2954  -1.9946  -0.1333
     0.7687   1.2309

          k = 0.0418 0.5064 0.0000 ( 20132 PWs)   bands (ev):

   -23.4026 -23.3703 -23.3664 -23.3457 -23.3400 -23.3363 -23.3314 -23.3289
   -23.3157 -23.2890  -8.8464  -7.6505  -3.4629  -2.3938  -2.0566   0.0014
     0.5835   1.2264

          k = 0.0418 0.5547 0.0000 ( 20126 PWs)   bands (ev):

   -23.4025 -23.3686 -23.3655 -23.3429 -23.3390 -23.3366 -23.3339 -23.3321
   -23.3158 -23.2890  -8.7525  -7.7367  -3.4732  -2.4506  -2.0885   0.1415
     0.4196   1.2235

          k = 0.0835 0.1447 0.0000 ( 20045 PWs)   bands (ev):

   -23.4048 -23.4005 -23.3673 -23.3610 -23.3582 -23.3234 -23.3178 -23.3167
   -23.2937 -23.2883  -9.8567  -7.0425  -2.0550  -1.8643  -1.3173   0.4901
     0.5245   1.2003

          k = 0.0835 0.1929 0.0000 ( 20059 PWs)   bands (ev):

   -23.4045 -23.3977 -23.3666 -23.3607 -23.3564 -23.3243 -23.3186 -23.3170
   -23.2968 -23.2884  -9.7699  -7.0605  -2.3603  -1.8581  -1.5035   0.3018
     0.7175   1.2778

          k = 0.0835 0.2412 0.0000 ( 20083 PWs)   bands (ev):

   -23.4042 -23.3942 -23.3660 -23.3600 -23.3543 -23.3255 -23.3196 -23.3172
   -23.3007 -23.2885  -9.6603  -7.0938  -2.6500  -1.8958  -1.6530   0.1204
     0.8837   1.3155

          k = 0.0835 0.2894 0.0000 ( 20094 PWs)   bands (ev):

   -23.4038 -23.3901 -23.3657 -23.3587 -23.3518 -23.3271 -23.3210 -23.3174
   -23.3051 -23.2887  -9.5299  -7.1484  -2.9055  -2.0061  -1.7364  -0.0208
     1.0002   1.2984

          k = 0.0835 0.3376 0.0000 ( 20094 PWs)   bands (ev):

   -23.4035 -23.3855 -23.3656 -23.3567 -23.3490 -23.3290 -23.3226 -23.3177
   -23.3099 -23.2889  -9.3814  -7.2289  -3.1137  -2.1408  -1.8065  -0.1001
     1.0650   1.2201

          k = 0.0835 0.3859 0.0000 ( 20088 PWs)   bands (ev):

   -23.4031 -23.3806 -23.3657 -23.3543 -23.3461 -23.3313 -23.3246 -23.3188
   -23.3140 -23.2890  -9.2193  -7.3366  -3.2681  -2.2609  -1.9001  -0.1080
     1.0551   1.1271

          k = 0.0835 0.4341 0.0000 ( 20111 PWs)   bands (ev):

   -23.4029 -23.3756 -23.3659 -23.3516 -23.3431 -23.3337 -23.3270 -23.3223
   -23.3157 -23.2891  -9.0511  -7.4661  -3.3697  -2.3540  -2.0136  -0.0504
     0.9046   1.1227

          k = 0.0835 0.4823 0.0000 ( 20119 PWs)   bands (ev):

   -23.4026 -23.3711 -23.3658 -23.3486 -23.3401 -23.3362 -23.3298 -23.3266
   -23.3161 -23.2892  -8.8902  -7.6027  -3.4269  -2.4158  -2.1265   0.0576
     0.7260   1.1237

          k = 0.0835 0.5305 0.0000 ( 20109 PWs)   bands (ev):

   -23.4025 -23.3683 -23.3652 -23.3456 -23.3393 -23.3366 -23.3328 -23.3302
   -23.3162 -23.2893  -8.7629  -7.7174  -3.4526  -2.4470  -2.2129   0.2005
     0.5435   1.1234

          k = 0.0835 0.5788 0.0000 ( 20128 PWs)   bands (ev):

   -23.4025 -23.3676 -23.3645 -23.3435 -23.3411 -23.3345 -23.3341 -23.3325
   -23.3162 -23.2893  -8.7115  -7.7650  -3.4595  -2.4551  -2.2463   0.3583
     0.3730   1.1232

          k = 0.1253 0.2170 0.0000 ( 20077 PWs)   bands (ev):

   -23.4042 -23.3946 -23.3657 -23.3606 -23.3543 -23.3254 -23.3192 -23.3173
   -23.3002 -23.2886  -9.6723  -7.0892  -2.5929  -1.9184  -1.6821   0.2964
     0.7277   1.3298

          k = 0.1253 0.2653 0.0000 ( 20086 PWs)   bands (ev):

   -23.4039 -23.3908 -23.3650 -23.3600 -23.3518 -23.3270 -23.3202 -23.3177
   -23.3043 -23.2888  -9.5529  -7.1362  -2.8100  -2.0901  -1.7503   0.2061
     0.8055   1.3422

          k = 0.1253 0.3135 0.0000 ( 20092 PWs)   bands (ev):

   -23.4035 -23.3865 -23.3646 -23.3588 -23.3490 -23.3289 -23.3215 -23.3180
   -23.3088 -23.2890  -9.4140  -7.2065  -3.0013  -2.2740  -1.7981   0.1169
     0.8624   1.3187

          k = 0.1253 0.3617 0.0000 ( 20080 PWs)   bands (ev):

   -23.4032 -23.3817 -23.3645 -23.3569 -23.3460 -23.3312 -23.3232 -23.3186
   -23.3132 -23.2892  -9.2590  -7.3030  -3.1587  -2.4206  -1.8739   0.0706
     0.8726   1.2632

          k = 0.1253 0.4100 0.0000 ( 20114 PWs)   bands (ev):

   -23.4029 -23.3767 -23.3646 -23.3545 -23.3430 -23.3337 -23.3255 -23.3207
   -23.3160 -23.2894  -9.0933  -7.4237  -3.2785  -2.5175  -1.9843   0.0785
     0.8429   1.1875

          k = 0.1253 0.4582 0.0000 ( 20113 PWs)   bands (ev):

   -23.4027 -23.3719 -23.3646 -23.3517 -23.3400 -23.3363 -23.3286 -23.3243
   -23.3167 -23.2895  -8.9264  -7.5598  -3.3616  -2.5607  -2.1187   0.1330
     0.7837   1.1115

          k = 0.1253 0.5064 0.0000 ( 20113 PWs)   bands (ev):

   -23.4025 -23.3680 -23.3644 -23.3488 -23.3395 -23.3366 -23.3322 -23.3276
   -23.3169 -23.2896  -8.7767  -7.6914  -3.4127  -2.5503  -2.2595   0.2143
     0.7056   1.0543

          k = 0.1253 0.5547 0.0000 ( 20114 PWs)   bands (ev):

   -23.4024 -23.3663 -23.3634 -23.3459 -23.3421 -23.3350 -23.3336 -23.3305
   -23.3169 -23.2897  -8.6794  -7.7804  -3.4368  -2.4907  -2.3879   0.2858
     0.6369   1.0252

          k = 0.1671 0.2894 0.0000 ( 20089 PWs)   bands (ev):

   -23.4036 -23.3868 -23.3639 -23.3598 -23.3490 -23.3289 -23.3210 -23.3182
   -23.3084 -23.2890  -9.4249  -7.1991  -2.9454  -2.3420  -1.7941   0.2433
     0.7411   1.3583

          k = 0.1671 0.3376 0.0000 ( 20084 PWs)   bands (ev):

   -23.4033 -23.3823 -23.3632 -23.3589 -23.3460 -23.3312 -23.3223 -23.3187
   -23.3126 -23.2893  -9.2790  -7.2859  -3.0596  -2.5578  -1.8559   0.2418
     0.6874   1.3639

          k = 0.1671 0.3859 0.0000 ( 20093 PWs)   bands (ev):

   -23.4030 -23.3774 -23.3630 -23.3571 -23.3429 -23.3337 -23.3245 -23.3197
   -23.3162 -23.2896  -9.1193  -7.3969  -3.1633  -2.7013  -1.9509   0.2306
     0.6509   1.3390

          k = 0.1671 0.4341 0.0000 ( 20113 PWs)   bands (ev):

   -23.4027 -23.3725 -23.3630 -23.3547 -23.3398 -23.3365 -23.3277 -23.3222
   -23.3176 -23.2898  -8.9522  -7.5276  -3.2629  -2.7582  -2.0771   0.2200
     0.6506   1.2738

          k = 0.1671 0.4823 0.0000 ( 20107 PWs)   bands (ev):

   -23.4026 -23.3679 -23.3629 -23.3520 -23.3395 -23.3366 -23.3317 -23.3250
   -23.3179 -23.2899  -8.7899  -7.6658  -3.3479  -2.7396  -2.2226   0.2081
     0.6991   1.1748

          k = 0.1671 0.5305 0.0000 ( 20106 PWs)   bands (ev):

   -23.4024 -23.3648 -23.3622 -23.3490 -23.3424 -23.3354 -23.3336 -23.3278
   -23.3179 -23.2901  -8.6574  -7.7849  -3.4040  -2.6695  -2.3682   0.1969
     0.7887   1.0569

          k = 0.1671 0.5788 0.0000 ( 20103 PWs)   bands (ev):

   -23.4024 -23.3642 -23.3613 -23.3468 -23.3446 -23.3369 -23.3311 -23.3302
   -23.3179 -23.2901  -8.6019  -7.8362  -3.4235  -2.6050  -2.4578   0.1924
     0.8699   0.9668

          k = 0.2088 0.3617 0.0000 ( 20087 PWs)   bands (ev):

   -23.4030 -23.3777 -23.3619 -23.3586 -23.3429 -23.3337 -23.3241 -23.3194
   -23.3163 -23.2896  -9.1280  -7.3877  -3.0858  -2.8050  -1.9378   0.3499
     0.5130   1.4021

          k = 0.2088 0.4100 0.0000 ( 20099 PWs)   bands (ev):

   -23.4028 -23.3728 -23.3612 -23.3572 -23.3397 -23.3365 -23.3272 -23.3205
   -23.3186 -23.2899  -8.9655  -7.5103  -3.1325  -2.9474  -2.0484   0.3220
     0.4985   1.3979

          k = 0.2088 0.4582 0.0000 ( 20115 PWs)   bands (ev):

   -23.4026 -23.3679 -23.3610 -23.3549 -23.3395 -23.3366 -23.3314 -23.3227
   -23.3192 -23.2902  -8.7992  -7.6473  -3.2565  -2.9242  -2.1828   0.1992
     0.6264   1.3394

          k = 0.2088 0.5064 0.0000 ( 20122 PWs)   bands (ev):

   -23.4024 -23.3636 -23.3607 -23.3522 -23.3425 -23.3357 -23.3335 -23.3252
   -23.3193 -23.2904  -8.6445  -7.7831  -3.3615  -2.8366  -2.3277   0.1118
     0.7736   1.2348

          k = 0.2088 0.5547 0.0000 ( 20133 PWs)   bands (ev):

   -23.4024 -23.3620 -23.3593 -23.3494 -23.3455 -23.3387 -23.3306 -23.3278
   -23.3193 -23.2905  -8.5375  -7.8810  -3.4164  -2.7410  -2.4514   0.0675
     0.9232   1.1045

          k = 0.2506 0.4341 0.0000 ( 20133 PWs)   bands (ev):

   -23.4026 -23.3679 -23.3595 -23.3568 -23.3395 -23.3366 -23.3313 -23.3208
   -23.3207 -23.2903  -8.8026  -7.6405  -3.1782  -3.0358  -2.1669   0.1954
     0.5959   1.4055

          k = 0.2506 0.4823 0.0000 ( 20115 PWs)   bands (ev):

   -23.4024 -23.3631 -23.3587 -23.3550 -23.3426 -23.3358 -23.3335 -23.3229
   -23.3209 -23.2906  -8.6389  -7.7804  -3.3224  -2.9432  -2.3010   0.0593
     0.7522   1.3535

          k = 0.2506 0.5305 0.0000 ( 20109 PWs)   bands (ev):

   -23.4024 -23.3596 -23.3577 -23.3524 -23.3457 -23.3400 -23.3306 -23.3252
   -23.3209 -23.2908  -8.4941  -7.9108  -3.4146  -2.8303  -2.4352  -0.0277
     0.9098   1.2559

          k = 0.2506 0.5788 0.0000 ( 20109 PWs)   bands (ev):

   -23.4023 -23.3591 -23.3562 -23.3504 -23.3479 -23.3420 -23.3282 -23.3274
   -23.3209 -23.2908  -8.4253  -7.9748  -3.4458  -2.7612  -2.5114  -0.0573
     1.0099   1.1750

          k = 0.2924 0.5064 0.0000 ( 20105 PWs)   bands (ev):

   -23.4024 -23.3585 -23.3564 -23.3546 -23.3458 -23.3405 -23.3306 -23.3232
   -23.3226 -23.2909  -8.4786  -7.9214  -3.4146  -2.8610  -2.4276  -0.0629
     0.9056   1.3101

          k = 0.2924 0.5547 0.0000 ( 20115 PWs)   bands (ev):

   -23.4023 -23.3564 -23.3536 -23.3527 -23.3487 -23.3445 -23.3279 -23.3252
   -23.3228 -23.2910  -8.3422  -8.0478  -3.4693  -2.7570  -2.5453  -0.1291
     1.0438   1.2279

          k = 0.3342 0.5788 0.0000 ( 20085 PWs)   bands (ev):

   -23.4023 -23.3538 -23.3538 -23.3502 -23.3491 -23.3491 -23.3256 -23.3256
   -23.3244 -23.2911  -8.1924  -8.1924  -3.4911  -2.6554  -2.6554  -0.1654
     1.1541   1.1541

     the Fermi energy is    -2.0776 ev

!    total energy              =    -326.33737762 Ry
     estimated scf accuracy    <          3.0E-10 Ry
     smearing contrib. (-TS)   =      -0.00068425 Ry
     internal energy E=F+TS    =    -326.33669337 Ry

     The total energy is F=E-TS. E is the sum of the following terms:
     one-electron contribution =    -767.68877804 Ry
     hartree contribution      =     391.53812553 Ry
     xc contribution           =     -94.74186604 Ry
     ewald contribution        =     144.55582518 Ry

     convergence has been achieved in  11 iterations

     negative rho (up, down):  3.016E-03 0.000E+00

     Forces acting on atoms (cartesian axes, Ry/au):

     atom    1 type  1   force =     0.00000000    0.00000000   -0.04457631
     atom    2 type  1   force =     0.00000000    0.00000000    0.04457631

     Total force =     0.044576     Total SCF correction =     0.000071


     Computing stress (Cartesian axis) and pressure


     negative rho (up, down):  3.016E-03 0.000E+00
          total   stress  (Ry/bohr**3)                   (kbar)     P=      -12.63
  -0.00009669   0.00000000  -0.00000000          -14.22        0.00       -0.00
   0.00000000  -0.00009669   0.00000000            0.00      -14.22        0.00
  -0.00000000   0.00000000  -0.00006425           -0.00        0.00       -9.45

     Energy error            =      3.2E-03
     Gradient error          =      4.5E-02
     Cell gradient error     =      9.7E-05


     number of scf cycles    =   2
     number of bfgs steps    =   1

     enthalpy old            =    -326.3341675249 Ry
     enthalpy new            =    -326.3373776172 Ry

     CASE: enthalpy_new < enthalpy_old


     WARNING: bfgs curvature condition failed, Theta= 0.805
     new trust radius        =       0.0488626597 bohr
     new conv_thr            =       0.0000000010 Ry

     new unit-cell volume =   2533.66482 a.u.^3 (   375.45039 Ang^3 )
     density =      1.05006 g/cm^3

CELL_PARAMETERS (alat=  8.84391826)
   0.994832841   0.000000000   0.000000000
  -0.497416420   0.861550512   0.000000000
   0.000000000   0.000000000   4.273504274

ATOMIC_POSITIONS (crystal)
Sn            0.3333333330        0.6666666660        0.5000000000    0   0   0
Sn            0.6666666660        0.3333333330        0.4024681688



     Writing output data file ../tmp/stanene.save/
     NEW-OLD atomic charge density approx. for the potential

     negative rho (up, down):  2.959E-03 0.000E+00
     extrapolated charge   27.85852, renormalised to   28.00000

     total cpu time spent up to now is      395.7 secs

     Self-consistent Calculation

     iteration #  1     ecut=    60.00 Ry     beta= 0.70
     Davidson diagonalization with overlap
     c_bands:  1 eigenvalues not converged
     ethr =  1.00E-06,  avg # of iterations =  7.0

     negative rho (up, down):  3.209E-03 0.000E+00

     total cpu time spent up to now is      429.6 secs

     total energy              =    -326.32266199 Ry
     estimated scf accuracy    <       0.01556336 Ry

     iteration #  2     ecut=    60.00 Ry     beta= 0.70
     Davidson diagonalization with overlap
     ethr =  5.56E-05,  avg # of iterations =  7.0

     negative rho (up, down):  3.023E-03 0.000E+00

     total cpu time spent up to now is      454.5 secs

     total energy              =    -326.33460600 Ry
     estimated scf accuracy    <       0.06688959 Ry

     iteration #  3     ecut=    60.00 Ry     beta= 0.70
     Davidson diagonalization with overlap
     ethr =  5.56E-05,  avg # of iterations =  3.9

     negative rho (up, down):  3.001E-03 0.000E+00

     total cpu time spent up to now is      470.4 secs

     total energy              =    -326.34077044 Ry
     estimated scf accuracy    <       0.01531815 Ry

     iteration #  4     ecut=    60.00 Ry     beta= 0.70
     Davidson diagonalization with overlap
     ethr =  5.47E-05,  avg # of iterations =  1.2

     negative rho (up, down):  2.998E-03 0.000E+00

     total cpu time spent up to now is      482.9 secs

     total energy              =    -326.34123764 Ry
     estimated scf accuracy    <       0.00327621 Ry

     iteration #  5     ecut=    60.00 Ry     beta= 0.70
     Davidson diagonalization with overlap
     ethr =  1.17E-05,  avg # of iterations =  2.9

     negative rho (up, down):  2.993E-03 0.000E+00

     total cpu time spent up to now is      497.6 secs

     total energy              =    -326.34074694 Ry
     estimated scf accuracy    <       0.00148039 Ry

     iteration #  6     ecut=    60.00 Ry     beta= 0.70
     Davidson diagonalization with overlap
     ethr =  5.29E-06,  avg # of iterations =  3.3

     negative rho (up, down):  2.988E-03 0.000E+00

     total cpu time spent up to now is      513.9 secs

     total energy              =    -326.34088768 Ry
     estimated scf accuracy    <       0.00011474 Ry

     iteration #  7     ecut=    60.00 Ry     beta= 0.70
     Davidson diagonalization with overlap
     ethr =  4.10E-07,  avg # of iterations =  2.2

     negative rho (up, down):  2.987E-03 0.000E+00

     total cpu time spent up to now is      528.8 secs

     total energy              =    -326.34088692 Ry
     estimated scf accuracy    <       0.00004318 Ry

     iteration #  8     ecut=    60.00 Ry     beta= 0.70
     Davidson diagonalization with overlap
     ethr =  1.54E-07,  avg # of iterations =  1.6

     negative rho (up, down):  2.985E-03 0.000E+00

     total cpu time spent up to now is      541.2 secs

     total energy              =    -326.34088183 Ry
     estimated scf accuracy    <       0.00001774 Ry

     iteration #  9     ecut=    60.00 Ry     beta= 0.70
     Davidson diagonalization with overlap
     ethr =  6.33E-08,  avg # of iterations =  2.0

     negative rho (up, down):  2.983E-03 0.000E+00

     total cpu time spent up to now is      555.0 secs

     total energy              =    -326.34088317 Ry
     estimated scf accuracy    <       0.00000133 Ry

     iteration # 10     ecut=    60.00 Ry     beta= 0.70
     Davidson diagonalization with overlap
     ethr =  4.74E-09,  avg # of iterations =  2.8

     negative rho (up, down):  2.983E-03 0.000E+00

     total cpu time spent up to now is      574.0 secs

     total energy              =    -326.34088357 Ry
     estimated scf accuracy    <       0.00000004 Ry

     iteration # 11     ecut=    60.00 Ry     beta= 0.70
     Davidson diagonalization with overlap
     ethr =  1.26E-10,  avg # of iterations =  2.3

     negative rho (up, down):  2.983E-03 0.000E+00

     total cpu time spent up to now is      592.7 secs

     End of self-consistent calculation

          k = 0.0000 0.0000 0.0000 ( 20001 PWs)   bands (ev):

   -23.3823 -23.3823 -23.3451 -23.3345 -23.3345 -23.2956 -23.2860 -23.2860
   -23.2574 -23.2574 -10.0374  -6.9746  -1.8817  -0.9213  -0.9213  -0.2324
     0.9984   0.9984

          k =-0.0000 0.0484 0.0000 ( 20007 PWs)   bands (ev):

   -23.3823 -23.3819 -23.3450 -23.3345 -23.3342 -23.2957 -23.2861 -23.2860
   -23.2579 -23.2574 -10.0244  -6.9750  -1.8756  -1.1321  -0.9532  -0.0490
     0.9344   1.0230

          k =-0.0000 0.0967 0.0000 ( 19993 PWs)   bands (ev):

   -23.3821 -23.3806 -23.3445 -23.3344 -23.3335 -23.2959 -23.2866 -23.2861
   -23.2595 -23.2575  -9.9857  -6.9771  -1.8590  -1.5126  -1.0406   0.2167
     0.8115   1.5221

          k =-0.0000 0.1451 0.0000 ( 20039 PWs)   bands (ev):

   -23.3819 -23.3784 -23.3437 -23.3342 -23.3323 -23.2964 -23.2874 -23.2864
   -23.2620 -23.2575  -9.9216  -6.9838  -1.9144  -1.8334  -1.1655   0.2643
     0.8366   1.6055

          k =-0.0000 0.1934 0.0000 ( 20061 PWs)   bands (ev):

   -23.3815 -23.3754 -23.3429 -23.3337 -23.3306 -23.2971 -23.2885 -23.2866
   -23.2654 -23.2576  -9.8329  -6.9999  -2.2929  -1.8144  -1.3090   0.0961
     1.0127   1.7209

          k =-0.0000 0.2418 0.0000 ( 20045 PWs)   bands (ev):

   -23.3812 -23.3716 -23.3422 -23.3328 -23.3285 -23.2981 -23.2899 -23.2869
   -23.2695 -23.2577  -9.7210  -7.0317  -2.6346  -1.8102  -1.4564  -0.0940
     1.1610   1.8644

          k =-0.0000 0.2902 0.0000 ( 20055 PWs)   bands (ev):

   -23.3808 -23.3673 -23.3418 -23.3312 -23.3261 -23.2994 -23.2916 -23.2872
   -23.2743 -23.2578  -9.5876  -7.0861  -2.9242  -1.8401  -1.5974  -0.2358
     1.2225   1.3503

          k =-0.0000 0.3385 0.0000 ( 20085 PWs)   bands (ev):

   -23.3804 -23.3624 -23.3416 -23.3291 -23.3233 -23.3011 -23.2936 -23.2878
   -23.2793 -23.2579  -9.4358  -7.1685  -3.1517  -1.9167  -1.7249  -0.3011
     1.1801   1.3673

          k =-0.0000 0.3869 0.0000 ( 20131 PWs)   bands (ev):

   -23.3800 -23.3572 -23.3415 -23.3265 -23.3204 -23.3031 -23.2959 -23.2896
   -23.2834 -23.2580  -9.2700  -7.2801  -3.3128  -2.0356  -1.8342  -0.2866
     1.0563   1.3685

          k =-0.0000 0.4353 0.0000 ( 20143 PWs)   bands (ev):

   -23.3797 -23.3520 -23.3415 -23.3237 -23.3172 -23.3053 -23.2985 -23.2939
   -23.2851 -23.2581  -9.0982  -7.4152  -3.4109  -2.1749  -1.9220  -0.2078
     0.8896   1.3611

          k =-0.0000 0.4836 0.0000 ( 20129 PWs)   bands (ev):

   -23.3795 -23.3476 -23.3411 -23.3206 -23.3140 -23.3077 -23.3013 -23.2990
   -23.2855 -23.2582  -8.9344  -7.5574  -3.4581  -2.3061  -1.9861  -0.0871
     0.7096   1.3511

          k =-0.0000 0.5320 0.0000 ( 20120 PWs)   bands (ev):

   -23.3793 -23.3450 -23.3400 -23.3177 -23.3107 -23.3099 -23.3042 -23.3033
   -23.2857 -23.2582  -8.8056  -7.6757  -3.4731  -2.4007  -2.0251   0.0480
     0.5416   1.3433

          k = 0.0000-0.5803 0.0000 ( 20096 PWs)   bands (ev):

   -23.3793 -23.3443 -23.3392 -23.3160 -23.3112 -23.3080 -23.3069 -23.3050
   -23.2857 -23.2582  -8.7539  -7.7244  -3.4751  -2.4355  -2.0381   0.1270
     0.4521   1.3404

          k = 0.0419 0.0725 0.0000 ( 20005 PWs)   bands (ev):

   -23.3822 -23.3810 -23.3446 -23.3345 -23.3337 -23.2958 -23.2864 -23.2861
   -23.2589 -23.2575  -9.9986  -6.9762  -1.8643  -1.4024  -1.0202   0.1666
     0.8262   1.0743

          k = 0.0419 0.1209 0.0000 ( 20013 PWs)   bands (ev):

   -23.3820 -23.3792 -23.3440 -23.3344 -23.3327 -23.2962 -23.2870 -23.2863
   -23.2610 -23.2575  -9.9471  -6.9806  -1.8451  -1.7608  -1.1429   0.3609
     0.7146   1.1605

          k = 0.0419 0.1693 0.0000 ( 20052 PWs)   bands (ev):

   -23.3817 -23.3767 -23.3432 -23.3341 -23.3312 -23.2968 -23.2879 -23.2865
   -23.2639 -23.2576  -9.8707  -6.9919  -2.1316  -1.8228  -1.2938   0.2740
     0.8314   1.2506

          k = 0.0419 0.2176 0.0000 ( 20055 PWs)   bands (ev):

   -23.3813 -23.3733 -23.3424 -23.3335 -23.3293 -23.2976 -23.2891 -23.2868
   -23.2677 -23.2577  -9.7704  -7.0158  -2.4798  -1.8132  -1.4499   0.0787
     1.0124   1.3211

          k = 0.0419 0.2660 0.0000 ( 20075 PWs)   bands (ev):

   -23.3809 -23.3692 -23.3418 -23.3324 -23.3269 -23.2989 -23.2907 -23.2871
   -23.2722 -23.2578  -9.6476  -7.0589  -2.7875  -1.8367  -1.5908  -0.0929
     1.1437   1.3512

          k = 0.0419 0.3144 0.0000 ( 20077 PWs)   bands (ev):

   -23.3806 -23.3646 -23.3414 -23.3306 -23.3243 -23.3004 -23.2925 -23.2875
   -23.2771 -23.2580  -9.5047  -7.1275  -3.0409  -1.9130  -1.7039  -0.2023
     1.2043   1.3293

          k = 0.0419 0.3627 0.0000 ( 20090 PWs)   bands (ev):

   -23.3802 -23.3595 -23.3413 -23.3283 -23.3214 -23.3023 -23.2946 -23.2886
   -23.2818 -23.2581  -9.3454  -7.2252  -3.2320  -2.0272  -1.8049  -0.2335
     1.1508   1.3070

          k = 0.0419 0.4111 0.0000 ( 20107 PWs)   bands (ev):

   -23.3798 -23.3543 -23.3413 -23.3256 -23.3183 -23.3045 -23.2970 -23.2916
   -23.2847 -23.2581  -9.1754  -7.3501  -3.3596  -2.1516  -1.9067  -0.1911
     1.0018   1.3067

          k = 0.0419 0.4594 0.0000 ( 20118 PWs)   bands (ev):

   -23.3796 -23.3493 -23.3411 -23.3227 -23.3151 -23.3069 -23.2998 -23.2965
   -23.2855 -23.2582  -9.0052  -7.4916  -3.4312  -2.2709  -1.9972  -0.0924
     0.8216   1.3043

          k = 0.0419 0.5078 0.0000 ( 20132 PWs)   bands (ev):

   -23.3794 -23.3457 -23.3403 -23.3197 -23.3119 -23.3092 -23.3028 -23.3011
   -23.2858 -23.2583  -8.8542  -7.6271  -3.4615  -2.3695  -2.0624   0.0413
     0.6372   1.3006

          k = 0.0419 0.5562 0.0000 ( 20126 PWs)   bands (ev):

   -23.3793 -23.3441 -23.3392 -23.3170 -23.3116 -23.3084 -23.3056 -23.3044
   -23.2859 -23.2583  -8.7580  -7.7168  -3.4695  -2.4267  -2.0957   0.1763
     0.4784   1.2981

          k = 0.0838 0.1451 0.0000 ( 20045 PWs)   bands (ev):

   -23.3817 -23.3771 -23.3433 -23.3343 -23.3313 -23.2967 -23.2877 -23.2866
   -23.2634 -23.2576  -9.8834  -6.9896  -2.0607  -1.8275  -1.3147   0.5396
     0.5639   1.2611

          k = 0.0838 0.1934 0.0000 ( 20059 PWs)   bands (ev):

   -23.3814 -23.3741 -23.3424 -23.3341 -23.3295 -23.2974 -23.2887 -23.2869
   -23.2667 -23.2577  -9.7952  -7.0086  -2.3690  -1.8223  -1.5017   0.3482
     0.7638   1.3419

          k = 0.0838 0.2418 0.0000 ( 20083 PWs)   bands (ev):

   -23.3811 -23.3704 -23.3416 -23.3335 -23.3272 -23.2986 -23.2899 -23.2872
   -23.2708 -23.2579  -9.6839  -7.0437  -2.6607  -1.8679  -1.6454   0.1653
     0.9360   1.3819

          k = 0.0838 0.2902 0.0000 ( 20094 PWs)   bands (ev):

   -23.3807 -23.3661 -23.3410 -23.3323 -23.3246 -23.3001 -23.2915 -23.2876
   -23.2754 -23.2580  -9.5512  -7.1012  -2.9168  -1.9908  -1.7187   0.0231
     1.0584   1.3642

          k = 0.0838 0.3385 0.0000 ( 20094 PWs)   bands (ev):

   -23.3803 -23.3612 -23.3407 -23.3305 -23.3217 -23.3019 -23.2934 -23.2882
   -23.2803 -23.2582  -9.4001  -7.1859  -3.1239  -2.1309  -1.7866  -0.0563
     1.1290   1.2815

          k = 0.0838 0.3869 0.0000 ( 20088 PWs)   bands (ev):

   -23.3800 -23.3560 -23.3405 -23.3282 -23.3186 -23.3041 -23.2956 -23.2900
   -23.2842 -23.2583  -9.2350  -7.2989  -3.2758  -2.2523  -1.8827  -0.0636
     1.1209   1.1860

          k = 0.0838 0.4353 0.0000 ( 20111 PWs)   bands (ev):

   -23.3797 -23.3508 -23.3404 -23.3254 -23.3154 -23.3065 -23.2983 -23.2940
   -23.2858 -23.2584  -9.0634  -7.4344  -3.3739  -2.3441  -2.0013  -0.0050
     0.9615   1.1895

          k = 0.0838 0.4836 0.0000 ( 20119 PWs)   bands (ev):

   -23.3794 -23.3463 -23.3400 -23.3225 -23.3122 -23.3090 -23.3016 -23.2983
   -23.2862 -23.2585  -8.8991  -7.5770  -3.4275  -2.4022  -2.1212   0.1042
     0.7790   1.1938

          k = 0.0838 0.5320 0.0000 ( 20109 PWs)   bands (ev):

   -23.3793 -23.3437 -23.3389 -23.3195 -23.3120 -23.3086 -23.3050 -23.3020
   -23.2863 -23.2585  -8.7688  -7.6964  -3.4505  -2.4274  -2.2159   0.2484
     0.5942   1.1954

          k = 0.0838 0.5803 0.0000 ( 20128 PWs)   bands (ev):

   -23.3793 -23.3431 -23.3381 -23.3177 -23.3135 -23.3067 -23.3058 -23.3047
   -23.2864 -23.2585  -8.7160  -7.7460  -3.4564  -2.4315  -2.2542   0.4101
     0.4196   1.1958

          k = 0.1256 0.2176 0.0000 ( 20077 PWs)   bands (ev):

   -23.3811 -23.3708 -23.3415 -23.3339 -23.3273 -23.2985 -23.2896 -23.2873
   -23.2703 -23.2579  -9.6960  -7.0388  -2.6034  -1.8950  -1.6701   0.3464
     0.7748   1.3962

          k = 0.1256 0.2660 0.0000 ( 20086 PWs)   bands (ev):

   -23.3808 -23.3668 -23.3406 -23.3334 -23.3247 -23.2999 -23.2908 -23.2877
   -23.2746 -23.2581  -9.5746  -7.0883  -2.8212  -2.0819  -1.7257   0.2554
     0.8587   1.4089

          k = 0.1256 0.3144 0.0000 ( 20092 PWs)   bands (ev):

   -23.3804 -23.3622 -23.3399 -23.3324 -23.3218 -23.3018 -23.2924 -23.2883
   -23.2792 -23.2583  -9.4333  -7.1623  -3.0118  -2.2712  -1.7713   0.1655
     0.9220   1.3830

          k = 0.1256 0.3627 0.0000 ( 20080 PWs)   bands (ev):

   -23.3800 -23.3572 -23.3395 -23.3306 -23.3187 -23.3040 -23.2944 -23.2892
   -23.2836 -23.2585  -9.2755  -7.2635  -3.1672  -2.4201  -1.8486   0.1194
     0.9364   1.3243

          k = 0.1256 0.4111 0.0000 ( 20114 PWs)   bands (ev):

   -23.3797 -23.3520 -23.3393 -23.3283 -23.3155 -23.3064 -23.2971 -23.2919
   -23.2862 -23.2587  -9.1066  -7.3899  -3.2841  -2.5177  -1.9618   0.1283
     0.9072   1.2472

          k = 0.1256 0.4594 0.0000 ( 20113 PWs)   bands (ev):

   -23.3795 -23.3470 -23.3390 -23.3255 -23.3123 -23.3091 -23.3006 -23.2956
   -23.2869 -23.2588  -8.9362  -7.5320  -3.3642  -2.5603  -2.1001   0.1848
     0.8439   1.1739

          k = 0.1256 0.5078 0.0000 ( 20113 PWs)   bands (ev):

   -23.3793 -23.3432 -23.3383 -23.3226 -23.3122 -23.3087 -23.3046 -23.2990
   -23.2871 -23.2589  -8.7830  -7.6690  -3.4130  -2.5476  -2.2453   0.2690
     0.7588   1.1217

          k = 0.1256 0.5562 0.0000 ( 20114 PWs)   bands (ev):

   -23.3792 -23.3417 -23.3369 -23.3199 -23.3147 -23.3074 -23.3055 -23.3022
   -23.2872 -23.2589  -8.6833  -7.7615  -3.4358  -2.4843  -2.3785   0.3444
     0.6835   1.0958

          k = 0.1675 0.2902 0.0000 ( 20089 PWs)   bands (ev):

   -23.3804 -23.3626 -23.3394 -23.3331 -23.3218 -23.3017 -23.2920 -23.2883
   -23.2788 -23.2584  -9.4444  -7.1545  -2.9561  -2.3409  -1.7657   0.2951
     0.7975   1.4244

          k = 0.1675 0.3385 0.0000 ( 20084 PWs)   bands (ev):

   -23.3801 -23.3578 -23.3385 -23.3323 -23.3187 -23.3039 -23.2937 -23.2890
   -23.2832 -23.2586  -9.2959  -7.2455  -3.0684  -2.5603  -1.8279   0.2946
     0.7470   1.4295

          k = 0.1675 0.3869 0.0000 ( 20093 PWs)   bands (ev):

   -23.3798 -23.3527 -23.3379 -23.3307 -23.3154 -23.3064 -23.2962 -23.2903
   -23.2867 -23.2589  -9.1331  -7.3617  -3.1695  -2.7058  -1.9247   0.2842
     0.7121   1.4044

          k = 0.1675 0.4353 0.0000 ( 20113 PWs)   bands (ev):

   -23.3795 -23.3475 -23.3375 -23.3285 -23.3122 -23.3092 -23.2998 -23.2932
   -23.2879 -23.2591  -8.9626  -7.4981  -3.2671  -2.7628  -2.0534   0.2749
     0.7119   1.3390

          k = 0.1675 0.4836 0.0000 ( 20107 PWs)   bands (ev):

   -23.3793 -23.3429 -23.3371 -23.3258 -23.3122 -23.3087 -23.3042 -23.2963
   -23.2882 -23.2592  -8.7967  -7.6419  -3.3511  -2.7426  -2.2017   0.2643
     0.7598   1.2401

          k = 0.1675 0.5320 0.0000 ( 20106 PWs)   bands (ev):

   -23.3792 -23.3402 -23.3358 -23.3229 -23.3151 -23.3080 -23.3055 -23.2992
   -23.2883 -23.2593  -8.6610  -7.7656  -3.4069  -2.6714  -2.3486   0.2540
     0.8482   1.1231

          k = 0.1675 0.5803 0.0000 ( 20103 PWs)   bands (ev):

   -23.3792 -23.3396 -23.3347 -23.3211 -23.3170 -23.3096 -23.3027 -23.3020
   -23.2884 -23.2594  -8.6041  -7.8188  -3.4262  -2.6099  -2.4353   0.2497
     0.9249   1.0376

          k = 0.2094 0.3627 0.0000 ( 20087 PWs)   bands (ev):

   -23.3798 -23.3529 -23.3370 -23.3319 -23.3154 -23.3064 -23.2959 -23.2897
   -23.2869 -23.2589  -9.1420  -7.3520  -3.0919  -2.8111  -1.9105   0.4058
     0.5718   1.4706

          k = 0.2094 0.4111 0.0000 ( 20099 PWs)   bands (ev):

   -23.3796 -23.3478 -23.3360 -23.3307 -23.3121 -23.3092 -23.2994 -23.2911
   -23.2892 -23.2592  -8.9762  -7.4799  -3.1369  -2.9544  -2.0229   0.3790
     0.5577   1.4685

          k = 0.2094 0.4594 0.0000 ( 20115 PWs)   bands (ev):

   -23.3794 -23.3427 -23.3354 -23.3286 -23.3123 -23.3087 -23.3039 -23.2937
   -23.2897 -23.2595  -8.8064  -7.6223  -3.2633  -2.9271  -2.1596   0.2554
     0.6882   1.4104

          k = 0.2094 0.5078 0.0000 ( 20122 PWs)   bands (ev):

   -23.3792 -23.3387 -23.3344 -23.3260 -23.3153 -23.3083 -23.3055 -23.2965
   -23.2898 -23.2597  -8.6481  -7.7632  -3.3695  -2.8365  -2.3065   0.1674
     0.8382   1.3047

          k = 0.2094 0.5562 0.0000 ( 20133 PWs)   bands (ev):

   -23.3792 -23.3372 -23.3327 -23.3235 -23.3181 -23.3115 -23.3024 -23.2993
   -23.2899 -23.2598  -8.5383  -7.8646  -3.4250  -2.7402  -2.4304   0.1227
     0.9916   1.1714

          k = 0.2513 0.4353 0.0000 ( 20133 PWs)   bands (ev):

   -23.3794 -23.3427 -23.3342 -23.3302 -23.3123 -23.3088 -23.3038 -23.2916
   -23.2914 -23.2596  -8.8098  -7.6152  -3.1901  -3.0346  -2.1431   0.2514
     0.6577   1.4796

          k = 0.2513 0.4836 0.0000 ( 20115 PWs)   bands (ev):

   -23.3792 -23.3379 -23.3329 -23.3287 -23.3154 -23.3085 -23.3055 -23.2940
   -23.2916 -23.2599  -8.6424  -7.7601  -3.3359  -2.9390  -2.2791   0.1139
     0.8175   1.4284

          k = 0.2513 0.5320 0.0000 ( 20109 PWs)   bands (ev):

   -23.3791 -23.3348 -23.3310 -23.3264 -23.3185 -23.3128 -23.3023 -23.2965
   -23.2917 -23.2600  -8.4940  -7.8949  -3.4290  -2.8239  -2.4150   0.0261
     0.9788   1.3293

          k = 0.2513 0.5803 0.0000 ( 20109 PWs)   bands (ev):

   -23.3791 -23.3342 -23.3294 -23.3249 -23.3202 -23.3149 -23.2997 -23.2989
   -23.2917 -23.2601  -8.4234  -7.9610  -3.4605  -2.7543  -2.4914  -0.0038
     1.0820   1.2459

          k = 0.2932 0.5078 0.0000 ( 20105 PWs)   bands (ev):

   -23.3791 -23.3336 -23.3300 -23.3282 -23.3186 -23.3133 -23.3023 -23.2944
   -23.2935 -23.2601  -8.4783  -7.9057  -3.4315  -2.8522  -2.4076  -0.0096
     0.9747   1.3862

          k = 0.2932 0.5562 0.0000 ( 20115 PWs)   bands (ev):

   -23.3791 -23.3315 -23.3272 -23.3267 -23.3211 -23.3175 -23.2994 -23.2965
   -23.2938 -23.2603  -8.3383  -8.0360  -3.4876  -2.7455  -2.5271  -0.0766
     1.1162   1.3028

          k = 0.3351 0.5803 0.0000 ( 20085 PWs)   bands (ev):

   -23.3791 -23.3287 -23.3287 -23.3223 -23.3222 -23.3222 -23.2970 -23.2970
   -23.2955 -23.2604  -8.1846  -8.1846  -3.5104  -2.6401  -2.6401  -0.1132
     1.2286   1.2287

     the Fermi energy is    -2.0628 ev

!    total energy              =    -326.34088358 Ry
     estimated scf accuracy    <          4.4E-10 Ry
     smearing contrib. (-TS)   =      -0.00065402 Ry
     internal energy E=F+TS    =    -326.34022956 Ry

     The total energy is F=E-TS. E is the sum of the following terms:
     one-electron contribution =    -772.90501638 Ry
     hartree contribution      =     394.17386699 Ry
     xc contribution           =     -94.75019558 Ry
     ewald contribution        =     147.14111541 Ry

     convergence has been achieved in  11 iterations

     negative rho (up, down):  2.983E-03 0.000E+00

     Forces acting on atoms (cartesian axes, Ry/au):

     atom    1 type  1   force =     0.00000000    0.00000000   -0.04476932
     atom    2 type  1   force =     0.00000000    0.00000000    0.04476932

     Total force =     0.044769     Total SCF correction =     0.000073


     Computing stress (Cartesian axis) and pressure


     negative rho (up, down):  2.983E-03 0.000E+00
          total   stress  (Ry/bohr**3)                   (kbar)     P=      -12.41
  -0.00009460   0.00000000  -0.00000000          -13.92        0.00       -0.00
   0.00000000  -0.00009460   0.00000000            0.00      -13.92        0.00
   0.00000000   0.00000000  -0.00006392            0.00        0.00       -9.40

     Energy error            =      3.5E-03
     Gradient error          =      4.5E-02
     Cell gradient error     =      9.5E-05


     number of scf cycles    =   3
     number of bfgs steps    =   2

     enthalpy old            =    -326.3373776172 Ry
     enthalpy new            =    -326.3408835757 Ry

     CASE: enthalpy_new < enthalpy_old

     new trust radius        =       0.0732939896 bohr
     new conv_thr            =       0.0000000010 Ry

     new unit-cell volume =   2513.56834 a.u.^3 (   372.47240 Ang^3 )
     density =      1.05845 g/cm^3

CELL_PARAMETERS (alat=  8.84391826)
   0.990879586   0.000000000   0.000000000
  -0.495439793   0.858126894   0.000000000
   0.000000000   0.000000000   4.273504274

ATOMIC_POSITIONS (crystal)
Sn            0.3333333330        0.6666666660        0.5000000000    0   0   0
Sn            0.6666666660        0.3333333330        0.4044074442



     Writing output data file ../tmp/stanene.save/
     NEW-OLD atomic charge density approx. for the potential

     negative rho (up, down):  2.901E-03 0.000E+00
     extrapolated charge   27.79213, renormalised to   28.00000

     total cpu time spent up to now is      600.4 secs

     Self-consistent Calculation

     iteration #  1     ecut=    60.00 Ry     beta= 0.70
     Davidson diagonalization with overlap
     ethr =  1.00E-06,  avg # of iterations =  7.6

     negative rho (up, down):  3.207E-03 0.000E+00

     total cpu time spent up to now is      637.5 secs

     total energy              =    -326.30874524 Ry
     estimated scf accuracy    <       0.03162336 Ry

     iteration #  2     ecut=    60.00 Ry     beta= 0.70
     Davidson diagonalization with overlap
     ethr =  1.13E-04,  avg # of iterations =  8.3

     negative rho (up, down):  2.911E-03 0.000E+00

     total cpu time spent up to now is      661.3 secs

     total energy              =    -326.33374958 Ry
     estimated scf accuracy    <       0.13320878 Ry

     iteration #  3     ecut=    60.00 Ry     beta= 0.70
     Davidson diagonalization with overlap
     ethr =  1.13E-04,  avg # of iterations =  4.3

     negative rho (up, down):  2.891E-03 0.000E+00

     total cpu time spent up to now is      675.7 secs

     total energy              =    -326.34604824 Ry
     estimated scf accuracy    <       0.02851247 Ry

     iteration #  4     ecut=    60.00 Ry     beta= 0.70
     Davidson diagonalization with overlap
     ethr =  1.02E-04,  avg # of iterations =  1.3

     negative rho (up, down):  2.914E-03 0.000E+00

     total cpu time spent up to now is      686.6 secs

     total energy              =    -326.34676804 Ry
     estimated scf accuracy    <       0.00659054 Ry

     iteration #  5     ecut=    60.00 Ry     beta= 0.70
     Davidson diagonalization with overlap
     ethr =  2.35E-05,  avg # of iterations =  2.4

     negative rho (up, down):  2.939E-03 0.000E+00

     total cpu time spent up to now is      699.1 secs

     total energy              =    -326.34572218 Ry
     estimated scf accuracy    <       0.00298685 Ry

     iteration #  6     ecut=    60.00 Ry     beta= 0.70
     Davidson diagonalization with overlap
     ethr =  1.07E-05,  avg # of iterations =  4.1

     negative rho (up, down):  2.929E-03 0.000E+00

     total cpu time spent up to now is      713.4 secs

     total energy              =    -326.34606033 Ry
     estimated scf accuracy    <       0.00017322 Ry

     iteration #  7     ecut=    60.00 Ry     beta= 0.70
     Davidson diagonalization with overlap
     ethr =  6.19E-07,  avg # of iterations =  3.1

     negative rho (up, down):  2.928E-03 0.000E+00

     total cpu time spent up to now is      727.0 secs

     total energy              =    -326.34605585 Ry
     estimated scf accuracy    <       0.00008297 Ry

     iteration #  8     ecut=    60.00 Ry     beta= 0.70
     Davidson diagonalization with overlap
     ethr =  2.96E-07,  avg # of iterations =  1.5

     negative rho (up, down):  2.925E-03 0.000E+00

     total cpu time spent up to now is      739.5 secs

     total energy              =    -326.34604708 Ry
     estimated scf accuracy    <       0.00003299 Ry

     iteration #  9     ecut=    60.00 Ry     beta= 0.70
     Davidson diagonalization with overlap
     ethr =  1.18E-07,  avg # of iterations =  2.0

     negative rho (up, down):  2.923E-03 0.000E+00

     total cpu time spent up to now is      752.0 secs

     total energy              =    -326.34604931 Ry
     estimated scf accuracy    <       0.00000271 Ry

     iteration # 10     ecut=    60.00 Ry     beta= 0.70
     Davidson diagonalization with overlap
     ethr =  9.69E-09,  avg # of iterations =  2.6

     negative rho (up, down):  2.922E-03 0.000E+00

     total cpu time spent up to now is      767.4 secs

     total energy              =    -326.34605013 Ry
     estimated scf accuracy    <       0.00000011 Ry

     iteration # 11     ecut=    60.00 Ry     beta= 0.70
     Davidson diagonalization with overlap
     ethr =  3.95E-10,  avg # of iterations =  2.1

     negative rho (up, down):  2.923E-03 0.000E+00

     total cpu time spent up to now is      782.3 secs

     End of self-consistent calculation

          k = 0.0000 0.0000 0.0000 ( 20001 PWs)   bands (ev):

   -23.3488 -23.3488 -23.3103 -23.2954 -23.2954 -23.2563 -23.2411 -23.2411
   -23.2118 -23.2118 -10.0823  -6.8936  -1.8261  -0.9124  -0.9124  -0.1942
     1.0732   1.0732

          k =-0.0000 0.0486 0.0000 ( 20007 PWs)   bands (ev):

   -23.3488 -23.3484 -23.3101 -23.2954 -23.2951 -23.2564 -23.2413 -23.2412
   -23.2124 -23.2118 -10.0690  -6.8940  -1.8200  -1.1258  -0.9449  -0.0078
     1.0085   1.0995

          k =-0.0000 0.0971 0.0000 ( 19993 PWs)   bands (ev):

   -23.3486 -23.3469 -23.3096 -23.2954 -23.2943 -23.2566 -23.2419 -23.2414
   -23.2140 -23.2119 -10.0294  -6.8963  -1.8031  -1.5130  -1.0342   0.2648
     0.8855   1.5423

          k =-0.0000 0.1457 0.0000 ( 20039 PWs)   bands (ev):

   -23.3483 -23.3445 -23.3087 -23.2952 -23.2930 -23.2570 -23.2428 -23.2417
   -23.2167 -23.2119  -9.9639  -6.9036  -1.9205  -1.7783  -1.1616   0.3197
     0.9104   1.6277

          k =-0.0000 0.1942 0.0000 ( 20061 PWs)   bands (ev):

   -23.3480 -23.3413 -23.3077 -23.2948 -23.2911 -23.2577 -23.2440 -23.2421
   -23.2204 -23.2120  -9.8732  -6.9211  -2.3058  -1.7579  -1.3080   0.1542
     1.0891   1.7425

          k =-0.0000 0.2428 0.0000 ( 20045 PWs)   bands (ev):

   -23.3476 -23.3372 -23.3067 -23.2941 -23.2888 -23.2586 -23.2456 -23.2425
   -23.2249 -23.2121  -9.7587  -6.9556  -2.6515  -1.7537  -1.4582  -0.0360
     1.2415   1.8875

          k =-0.0000 0.2913 0.0000 ( 20055 PWs)   bands (ev):

   -23.3472 -23.3324 -23.3059 -23.2928 -23.2862 -23.2599 -23.2476 -23.2432
   -23.2300 -23.2121  -9.6221  -7.0144  -2.9423  -1.7845  -1.6019  -0.1782
     1.3055   2.0621

          k =-0.0000 0.3399 0.0000 ( 20085 PWs)   bands (ev):

   -23.3467 -23.3271 -23.3053 -23.2909 -23.2831 -23.2615 -23.2499 -23.2444
   -23.2350 -23.2122  -9.4664  -7.1033  -3.1682  -1.8633  -1.7317  -0.2435
     1.2621   1.4764

          k =-0.0000 0.3884 0.0000 ( 20131 PWs)   bands (ev):

   -23.3463 -23.3215 -23.3049 -23.2885 -23.2799 -23.2635 -23.2525 -23.2474
   -23.2387 -23.2122  -9.2962  -7.2235  -3.3249  -1.9856  -1.8430  -0.2287
     1.1357   1.4800

          k =-0.0000 0.4370 0.0000 ( 20143 PWs)   bands (ev):

   -23.3460 -23.3161 -23.3044 -23.2857 -23.2764 -23.2656 -23.2554 -23.2524
   -23.2403 -23.2123  -9.1194  -7.3681  -3.4170  -2.1291  -1.9323  -0.1501
     0.9680   1.4740

          k =-0.0000 0.4856 0.0000 ( 20129 PWs)   bands (ev):

   -23.3458 -23.3117 -23.3033 -23.2828 -23.2728 -23.2679 -23.2586 -23.2579
   -23.2409 -23.2123  -8.9506  -7.5197  -3.4577  -2.2646  -1.9975  -0.0311
     0.7897   1.4648

          k =-0.0000 0.5341 0.0000 ( 20120 PWs)   bands (ev):

   -23.3456 -23.3093 -23.3016 -23.2800 -23.2700 -23.2691 -23.2625 -23.2620
   -23.2412 -23.2123  -8.8173  -7.6455  -3.4675  -2.3626  -2.0371   0.0984
     0.6277   1.4573

          k = 0.0000-0.5827 0.0000 ( 20096 PWs)   bands (ev):

   -23.3455 -23.3087 -23.3006 -23.2786 -23.2711 -23.2655 -23.2655 -23.2644
   -23.2413 -23.2123  -8.7638  -7.6971  -3.4675  -2.3988  -2.0504   0.1697
     0.5462   1.4545

          k = 0.0421 0.0728 0.0000 ( 20005 PWs)   bands (ev):

   -23.3487 -23.3474 -23.3097 -23.2954 -23.2946 -23.2565 -23.2417 -23.2413
   -23.2135 -23.2118 -10.0426  -6.8954  -1.8084  -1.4008  -1.0133   0.2128
     0.8997   1.5240

          k = 0.0421 0.1214 0.0000 ( 20013 PWs)   bands (ev):

   -23.3485 -23.3455 -23.3090 -23.2953 -23.2935 -23.2568 -23.2424 -23.2416
   -23.2157 -23.2119  -9.9900  -6.9002  -1.7900  -1.7646  -1.1382   0.4140
     0.7876   1.2456

          k = 0.0421 0.1699 0.0000 ( 20052 PWs)   bands (ev):

   -23.3481 -23.3427 -23.3081 -23.2951 -23.2918 -23.2574 -23.2434 -23.2419
   -23.2188 -23.2120  -9.9119  -6.9125  -2.1423  -1.7665  -1.2917   0.3341
     0.9038   1.3417

          k = 0.0421 0.2185 0.0000 ( 20055 PWs)   bands (ev):

   -23.3478 -23.3390 -23.3071 -23.2946 -23.2897 -23.2582 -23.2449 -23.2424
   -23.2229 -23.2121  -9.8093  -6.9384  -2.4953  -1.7575  -1.4498   0.1392
     1.0900   1.4176

[...]

     iteration #  7     ecut=    60.00 Ry     beta= 0.70
     Davidson diagonalization with overlap
     ethr =  3.98E-08,  avg # of iterations =  2.0

     negative rho (up, down):  3.604E-03 0.000E+00

     total cpu time spent up to now is     5853.7 secs

     total energy              =    -326.41875704 Ry
     estimated scf accuracy    <       0.00000089 Ry

     iteration #  8     ecut=    60.00 Ry     beta= 0.70
     Davidson diagonalization with overlap
     ethr =  3.18E-09,  avg # of iterations =  2.1

     negative rho (up, down):  3.603E-03 0.000E+00

     total cpu time spent up to now is     5868.3 secs

     total energy              =    -326.41875734 Ry
     estimated scf accuracy    <       0.00000006 Ry

     iteration #  9     ecut=    60.00 Ry     beta= 0.70
     Davidson diagonalization with overlap
     ethr =  1.98E-10,  avg # of iterations =  2.4

     negative rho (up, down):  3.603E-03 0.000E+00

     total cpu time spent up to now is     5882.5 secs

     total energy              =    -326.41875734 Ry
     estimated scf accuracy    <          2.4E-09 Ry

     iteration # 10     ecut=    60.00 Ry     beta= 0.70
     Davidson diagonalization with overlap
     ethr =  8.61E-12,  avg # of iterations =  2.2

     negative rho (up, down):  3.603E-03 0.000E+00

     total cpu time spent up to now is     5897.3 secs

     total energy              =    -326.41875734 Ry
     estimated scf accuracy    <          4.6E-11 Ry

     iteration # 11     ecut=    60.00 Ry     beta= 0.70
     Davidson diagonalization with overlap
     ethr =  1.64E-13,  avg # of iterations =  3.3

     negative rho (up, down):  3.603E-03 0.000E+00

     total cpu time spent up to now is     5911.1 secs

     End of self-consistent calculation

          k = 0.0000 0.0000 0.0000 ( 20025 PWs)   bands (ev):

   -23.5233 -23.5233 -23.4457 -23.4457 -23.4299 -23.3594 -23.2184 -23.2184
   -23.1619 -23.1619 -11.3727  -5.2737  -2.4032  -2.4032  -1.9469  -0.0980
     1.4913   1.6173

          k =-0.0000 0.0481 0.0000 ( 20035 PWs)   bands (ev):

   -23.5242 -23.5240 -23.4473 -23.4445 -23.4276 -23.3582 -23.2209 -23.2207
   -23.1605 -23.1596 -11.3580  -5.2968  -2.6935  -2.4358  -1.6384  -0.0960
     1.0615   1.1490

          k =-0.0000 0.0962 0.0000 ( 20005 PWs)   bands (ev):

   -23.5266 -23.5261 -23.4509 -23.4412 -23.4224 -23.3544 -23.2274 -23.2269
   -23.1573 -23.1537 -11.3139  -5.3743  -3.0807  -2.5263  -1.2022  -0.0930
     1.0021   1.5527

          k =-0.0000 0.1442 0.0000 ( 20065 PWs)   bands (ev):

   -23.5299 -23.5291 -23.4555 -23.4362 -23.4160 -23.3483 -23.2360 -23.2353
   -23.1535 -23.1460 -11.2408  -5.5270  -3.3908  -2.6580  -0.8381  -0.0980
     0.9999   1.7566

          k =-0.0000 0.1923 0.0000 ( 20113 PWs)   bands (ev):

   -23.5331 -23.5324 -23.4608 -23.4303 -23.4098 -23.3400 -23.2455 -23.2447
   -23.1502 -23.1378 -11.1391  -5.7709  -3.5860  -2.8121  -0.6369  -0.1156
     1.1328   1.7352

          k =-0.0000 0.2404 0.0000 ( 20071 PWs)   bands (ev):

   -23.5358 -23.5357 -23.4666 -23.4240 -23.4045 -23.3299 -23.2550 -23.2540
   -23.1479 -23.1298 -11.0098  -6.0971  -3.6664  -2.9726  -0.6235  -0.1396
     1.3656   1.8977

          k =-0.0000 0.2885 0.0000 ( 20087 PWs)   bands (ev):

   -23.5387 -23.5375 -23.4729 -23.4178 -23.4006 -23.3185 -23.2641 -23.2624
   -23.1470 -23.1223 -10.8541  -6.4758  -3.6567  -3.1276  -0.7281  -0.1834
     1.5651   2.1271

          k =-0.0000 0.3365 0.0000 ( 20109 PWs)   bands (ev):

   -23.5412 -23.5379 -23.4794 -23.4121 -23.3982 -23.3068 -23.2723 -23.2690
   -23.1476 -23.1156 -10.6746  -6.8759  -3.5852  -3.2687  -0.8817  -0.2604
     1.7052   2.3536

          k =-0.0000 0.3846 0.0000 ( 20145 PWs)   bands (ev):

   -23.5433 -23.5371 -23.4860 -23.4071 -23.3971 -23.2968 -23.2794 -23.2726
   -23.1493 -23.1099 -10.4756  -7.2729  -3.4750  -3.3902  -1.0519  -0.3627
     1.8410   2.5612

          k =-0.0000 0.4327 0.0000 ( 20161 PWs)   bands (ev):

   -23.5448 -23.5351 -23.4926 -23.4031 -23.3970 -23.2915 -23.2851 -23.2709
   -23.1520 -23.1053 -10.2651  -7.6463  -3.4881  -3.3459  -1.2229  -0.4691
     1.9996   2.7901

          k =-0.0000 0.4808 0.0000 ( 20157 PWs)   bands (ev):

   -23.5459 -23.5323 -23.4987 -23.4002 -23.3974 -23.2908 -23.2893 -23.2650
   -23.1548 -23.1020 -10.0599  -7.9721  -3.5597  -3.2192  -1.3783  -0.5586
     2.1777   3.0162

          k =-0.0000 0.5288 0.0000 ( 20142 PWs)   bands (ev):

   -23.5465 -23.5295 -23.5035 -23.3984 -23.3978 -23.2918 -23.2913 -23.2598
   -23.1571 -23.1000  -9.8946  -8.2112  -3.6033  -3.1223  -1.4928  -0.6167
     2.3434   3.1635

          k = 0.0000-0.5769 0.0000 ( 20152 PWs)   bands (ev):

   -23.5467 -23.5282 -23.5055 -23.3980 -23.3978 -23.2927 -23.2916 -23.2579
   -23.1580 -23.0993  -9.8271  -8.3035  -3.6179  -3.0851  -1.5361  -0.6367
     2.4201   3.1784

          k = 0.0416 0.0721 0.0000 ( 20017 PWs)   bands (ev):

   -23.5258 -23.5255 -23.4497 -23.4424 -23.4239 -23.3557 -23.2255 -23.2248
   -23.1584 -23.1554 -11.3286  -5.3471  -2.9800  -2.5016  -1.3123  -0.0935
     1.0066   1.2652

          k = 0.0416 0.1202 0.0000 ( 20039 PWs)   bands (ev):

   -23.5285 -23.5281 -23.4536 -23.4386 -23.4180 -23.3508 -23.2331 -23.2319
   -23.1553 -23.1484 -11.2700  -5.4626  -3.2878  -2.6226  -0.9308  -0.0953
     0.9485   1.4867

          k = 0.0416 0.1683 0.0000 ( 20081 PWs)   bands (ev):

   -23.5319 -23.5311 -23.4584 -23.4335 -23.4114 -23.3437 -23.2421 -23.2406
   -23.1522 -23.1403 -11.1826  -5.6625  -3.5161  -2.7766  -0.6350  -0.1108
     0.9799   1.6823

          k = 0.0416 0.2163 0.0000 ( 20075 PWs)   bands (ev):

   -23.5355 -23.5338 -23.4639 -23.4277 -23.4051 -23.3347 -23.2514 -23.2498
   -23.1499 -23.1320 -11.0670  -5.9500  -3.6374  -2.9436  -0.5211  -0.1312
     1.1572   1.8043

          k = 0.0416 0.2644 0.0000 ( 20107 PWs)   bands (ev):

   -23.5388 -23.5357 -23.4700 -23.4217 -23.4000 -23.3241 -23.2605 -23.2587
   -23.1488 -23.1240 -10.9243  -6.3037  -3.6630  -3.1081  -0.5842  -0.1488
     1.4089   1.9830

          k = 0.0416 0.3125 0.0000 ( 20105 PWs)   bands (ev):

   -23.5417 -23.5367 -23.4764 -23.4160 -23.3963 -23.3128 -23.2689 -23.2662
   -23.1491 -23.1167 -10.7564  -6.6927  -3.6206  -3.2572  -0.7334  -0.1917
     1.6140   2.2295

          k = 0.0416 0.3606 0.0000 ( 20127 PWs)   bands (ev):

   -23.5440 -23.5365 -23.4830 -23.4108 -23.3942 -23.3021 -23.2763 -23.2714
   -23.1507 -23.1103 -10.5665  -7.0903  -3.5505  -3.3672  -0.9140  -0.2655
     1.7697   2.4597

          k = 0.0416 0.4086 0.0000 ( 20135 PWs)   bands (ev):

   -23.5458 -23.5351 -23.4896 -23.4064 -23.3934 -23.2945 -23.2826 -23.2723
   -23.1533 -23.1050 -10.3603  -7.4753  -3.5615  -3.3442  -1.1037  -0.3550
     1.9248   2.6679

          k = 0.0416 0.4567 0.0000 ( 20146 PWs)   bands (ev):

   -23.5471 -23.5327 -23.4960 -23.4028 -23.3935 -23.2921 -23.2873 -23.2678
   -23.1565 -23.1009 -10.1492  -7.8266  -3.6315  -3.2265  -1.2862  -0.4396
     2.0960   2.8682

          k = 0.0416 0.5048 0.0000 ( 20148 PWs)   bands (ev):

   -23.5479 -23.5298 -23.5015 -23.4000 -23.3944 -23.2924 -23.2904 -23.2619
   -23.1595 -23.0981  -9.9574  -8.1145  -3.6863  -3.1104  -1.4389  -0.5035
     2.2676   3.0167

          k = 0.0416 0.5529 0.0000 ( 20150 PWs)   bands (ev):

   -23.5483 -23.5276 -23.5051 -23.3979 -23.3956 -23.2930 -23.2919 -23.2581
   -23.1613 -23.0967  -9.8325  -8.2883  -3.7149  -3.0376  -1.5297  -0.5374
     2.3887   3.1358

          k = 0.0833 0.1442 0.0000 ( 20061 PWs)   bands (ev):

   -23.5314 -23.5307 -23.4573 -23.4351 -23.4116 -23.3450 -23.2410 -23.2389
   -23.1534 -23.1408 -11.1971  -5.6265  -3.4809  -2.7808  -0.6075  -0.1116
     0.8860   1.6670

          k = 0.0833 0.1923 0.0000 ( 20087 PWs)   bands (ev):

   -23.5352 -23.5329 -23.4621 -23.4307 -23.4045 -23.3375 -23.2497 -23.2472
   -23.1521 -23.1323 -11.0957  -5.8734  -3.6030  -2.9678  -0.3518  -0.1470
     0.9154   1.7640

          k = 0.0833 0.2404 0.0000 ( 20121 PWs)   bands (ev):

   -23.5391 -23.5345 -23.4678 -23.4256 -23.3977 -23.3284 -23.2583 -23.2558
   -23.1517 -23.1237 -10.9667  -6.1916  -3.6441  -3.1573  -0.3510  -0.1060
     1.1022   1.8912

          k = 0.0833 0.2885 0.0000 ( 20106 PWs)   bands (ev):

   -23.5427 -23.5353 -23.4740 -23.4203 -23.3921 -23.3183 -23.2665 -23.2637
   -23.1526 -23.1156 -10.8113  -6.5559  -3.6239  -3.3269  -0.5119  -0.0662
     1.3855   2.0664

          k = 0.0833 0.3365 0.0000 ( 20114 PWs)   bands (ev):

   -23.5458 -23.5351 -23.4806 -23.4150 -23.3882 -23.3083 -23.2739 -23.2697
   -23.1548 -23.1082 -10.6321  -6.9407  -3.6100  -3.4180  -0.7160  -0.0796
     1.6468   2.3073

          k = 0.0833 0.3846 0.0000 ( 20126 PWs)   bands (ev):

   -23.5483 -23.5339 -23.4872 -23.4101 -23.3861 -23.3001 -23.2803 -23.2722
   -23.1580 -23.1019 -10.4330  -7.3247  -3.6958  -3.3482  -0.9365  -0.1240
     1.8523   2.5257

          k = 0.0833 0.4327 0.0000 ( 20149 PWs)   bands (ev):

   -23.5502 -23.5319 -23.4936 -23.4056 -23.3857 -23.2960 -23.2855 -23.2697
   -23.1620 -23.0968 -10.2219  -7.6884  -3.7957  -3.2161  -1.1567  -0.1792
     2.0343   2.6585

          k = 0.0833 0.4808 0.0000 ( 20151 PWs)   bands (ev):

   -23.5515 -23.5292 -23.4995 -23.4015 -23.3868 -23.2951 -23.2894 -23.2640
   -23.1661 -23.0931 -10.0150  -8.0087  -3.8726  -3.0765  -1.3561  -0.2294
     2.1988   2.7566

          k = 0.0833 0.5288 0.0000 ( 20157 PWs)   bands (ev):

   -23.5522 -23.5265 -23.5041 -23.3981 -23.3886 -23.2949 -23.2921 -23.2589
   -23.1692 -23.0908  -9.8468  -8.2464  -3.9200  -2.9646  -1.5040  -0.2635
     2.3128   2.8914

          k = 0.0833 0.5769 0.0000 ( 20154 PWs)   bands (ev):

   -23.5524 -23.5253 -23.5060 -23.3965 -23.3898 -23.2946 -23.2933 -23.2569
   -23.1705 -23.0900  -9.7775  -8.3392  -3.9360  -2.9200  -1.5605  -0.2755
     2.3503   3.0369

          k = 0.1249 0.2163 0.0000 ( 20099 PWs)   bands (ev):

   -23.5392 -23.5341 -23.4670 -23.4271 -23.3966 -23.3300 -23.2576 -23.2548
   -23.1530 -23.1234 -10.9808  -6.1525  -3.6295  -3.1898  -0.2397  -0.0516
     0.9125   1.8692

          k = 0.1249 0.2644 0.0000 ( 20119 PWs)   bands (ev):

   -23.5433 -23.5345 -23.4727 -23.4228 -23.3890 -23.3218 -23.2653 -23.2622
   -23.1551 -23.1146 -10.8389  -6.4819  -3.6020  -3.4059  -0.3789   0.1421
     1.0665   1.9994

          k = 0.1249 0.3125 0.0000 ( 20122 PWs)   bands (ev):

   -23.5472 -23.5342 -23.4789 -23.4180 -23.3827 -23.3136 -23.2724 -23.2684
   -23.1583 -23.1062 -10.6717  -6.8407  -3.6447  -3.4839  -0.5707   0.2132
     1.3655   2.1639

          k = 0.1249 0.3606 0.0000 ( 20112 PWs)   bands (ev):

   -23.5506 -23.5330 -23.4854 -23.4129 -23.3783 -23.3065 -23.2787 -23.2717
   -23.1627 -23.0988 -10.4821  -7.2097  -3.8116  -3.3723  -0.7946   0.2173
     1.6903   2.3451

          k = 0.1249 0.4086 0.0000 ( 20146 PWs)   bands (ev):

   -23.5533 -23.5311 -23.4918 -23.4078 -23.3762 -23.3020 -23.2841 -23.2706
   -23.1680 -23.0925 -10.2755  -7.5716  -3.9556  -3.2251  -1.0313   0.1946
     1.9619   2.4256

          k = 0.1249 0.4567 0.0000 ( 20145 PWs)   bands (ev):

   -23.5553 -23.5285 -23.4977 -23.4029 -23.3764 -23.3000 -23.2886 -23.2657
   -23.1736 -23.0876 -10.0623  -7.9073  -4.0659  -3.0657  -1.2612   0.1642
     2.1531   2.4782

          k = 0.1249 0.5048 0.0000 ( 20141 PWs)   bands (ev):

   -23.5566 -23.5257 -23.5029 -23.3984 -23.3782 -23.2988 -23.2922 -23.2600
   -23.1785 -23.0843  -9.8656  -8.1885  -4.1401  -2.9182  -1.4573   0.1378
     2.2196   2.6440

          k = 0.1249 0.5529 0.0000 ( 20145 PWs)   bands (ev):

   -23.5573 -23.5235 -23.5062 -23.3953 -23.3802 -23.2974 -23.2949 -23.2563
   -23.1815 -23.0826  -9.7344  -8.3627  -4.1774  -2.8224  -1.5781   0.1228
     2.2243   2.8695

          k = 0.1665 0.2885 0.0000 ( 20113 PWs)   bands (ev):

   -23.5477 -23.5339 -23.4784 -23.4190 -23.3804 -23.3158 -23.2719 -23.2679
   -23.1597 -23.1055 -10.6849  -6.8053  -3.6556  -3.5126  -0.5242   0.4328
     1.1326   2.1307

          k = 0.1665 0.3365 0.0000 ( 20110 PWs)   bands (ev):

   -23.5518 -23.5326 -23.4845 -23.4144 -23.3729 -23.3110 -23.2779 -23.2712
   -23.1655 -23.0970 -10.5069  -7.1467  -3.8789  -3.3900  -0.7206   0.5896
     1.3832   2.2832

          k = 0.1665 0.3846 0.0000 ( 20115 PWs)   bands (ev):

   -23.5554 -23.5306 -23.4906 -23.4092 -23.3676 -23.3082 -23.2833 -23.2708
   -23.1723 -23.0895 -10.3082  -7.4919  -4.0687  -3.2384  -0.9458   0.6302
     1.7453   2.3207

          k = 0.1665 0.4327 0.0000 ( 20139 PWs)   bands (ev):

   -23.5583 -23.5280 -23.4965 -23.4039 -23.3653 -23.3066 -23.2880 -23.2668
   -23.1795 -23.0833 -10.0957  -7.8263  -4.2190  -3.0690  -1.1808   0.6303
     2.0929   2.2371

          k = 0.1665 0.4808 0.0000 ( 20145 PWs)   bands (ev):

   -23.5604 -23.5252 -23.5017 -23.3987 -23.3658 -23.3049 -23.2922 -23.2611
   -23.1866 -23.0788  -9.8835  -8.1296  -4.3273  -2.8977  -1.4032   0.6199
     2.1257   2.4353

          k = 0.1665 0.5288 0.0000 ( 20147 PWs)   bands (ev):

   -23.5617 -23.5226 -23.5059 -23.3945 -23.3678 -23.3025 -23.2960 -23.2560
   -23.1921 -23.0760  -9.7052  -8.3641  -4.3925  -2.7553  -1.5780   0.6102
     2.0683   2.7286

          k = 0.1665 0.5769 0.0000 ( 20135 PWs)   bands (ev):

   -23.5622 -23.5213 -23.5076 -23.3928 -23.3689 -23.3001 -23.2988 -23.2540
   -23.1942 -23.0750  -9.6287  -8.4596  -4.4143  -2.6954  -1.6489   0.6065
     2.0480   2.9086

          k = 0.2082 0.3606 0.0000 ( 20119 PWs)   bands (ev):

   -23.5561 -23.5304 -23.4902 -23.4097 -23.3639 -23.3111 -23.2830 -23.2708
   -23.1738 -23.0884 -10.3192  -7.4635  -4.1095  -3.2441  -0.9159   0.9235
     1.5057   2.4519

          k = 0.2082 0.4086 0.0000 ( 20133 PWs)   bands (ev):

   -23.5599 -23.5278 -23.4958 -23.4044 -23.3571 -23.3125 -23.2877 -23.2673
   -23.1828 -23.0810 -10.1129  -7.7809  -4.3033  -3.0739  -1.1353   1.0794
     1.8196   2.2158

          k = 0.2082 0.4567 0.0000 ( 20137 PWs)   bands (ev):

   -23.5630 -23.5250 -23.5010 -23.3989 -23.3539 -23.3125 -23.2922 -23.2619
   -23.1919 -23.0752  -9.8962  -8.0855  -4.4520  -2.8912  -1.3605   1.1255
     2.0488   2.2298

          k = 0.2082 0.5048 0.0000 ( 20163 PWs)   bands (ev):

   -23.5651 -23.5222 -23.5054 -23.3940 -23.3543 -23.3100 -23.2967 -23.2561
   -23.2001 -23.0712  -9.6883  -8.3543  -4.5523  -2.7159  -1.5669   1.1417
     1.9426   2.5897

          k = 0.2082 0.5529 0.0000 ( 20157 PWs)   bands (ev):

   -23.5662 -23.5200 -23.5084 -23.3909 -23.3557 -23.3059 -23.3012 -23.2519
   -23.2054 -23.0692  -9.5400  -8.5337  -4.6027  -2.5926  -1.7067   1.1481
     1.8835   2.8826

          k = 0.2498 0.4327 0.0000 ( 20149 PWs)   bands (ev):

   -23.5639 -23.5250 -23.5007 -23.3990 -23.3480 -23.3169 -23.2922 -23.2621
   -23.1938 -23.0740  -9.9007  -8.0692  -4.4958  -2.8900  -1.3444   1.4445
     1.9912   2.0684

          k = 0.2498 0.4808 0.0000 ( 20153 PWs)   bands (ev):

   -23.5669 -23.5220 -23.5051 -23.3938 -23.3426 -23.3182 -23.2971 -23.2562
   -23.2044 -23.0687  -9.6809  -8.3453  -4.6373  -2.6984  -1.5570   1.6024
     1.9252   2.3579

          k = 0.2498 0.5288 0.0000 ( 20133 PWs)   bands (ev):

   -23.5687 -23.5193 -23.5086 -23.3897 -23.3421 -23.3144 -23.3024 -23.2504
   -23.2133 -23.0654  -9.4797  -8.5810  -4.7235  -2.5241  -1.7449   1.6678
     1.8133   2.7541

          k = 0.2498 0.5769 0.0000 ( 20123 PWs)   bands (ev):

   -23.5694 -23.5180 -23.5103 -23.3881 -23.3427 -23.3087 -23.3081 -23.2476
   -23.2171 -23.0643  -9.3814  -8.6911  -4.7524  -2.4402  -1.8336   1.7180
     1.7417   2.9718

          k = 0.2914 0.5048 0.0000 ( 20137 PWs)   bands (ev):

   -23.5696 -23.5192 -23.5087 -23.3893 -23.3331 -23.3216 -23.3028 -23.2498
   -23.2161 -23.0642  -9.4582  -8.5974  -4.7651  -2.4999  -1.7584   1.7100
     2.1219   2.5326

          k = 0.2914 0.5529 0.0000 ( 20132 PWs)   bands (ev):

   -23.5711 -23.5167 -23.5115 -23.3866 -23.3303 -23.3175 -23.3098 -23.2437
   -23.2252 -23.0619  -9.2614  -8.8090  -4.8302  -2.3268  -1.9331   1.6663
     2.2578   2.8357

          k = 0.3331 0.5769 0.0000 ( 20133 PWs)   bands (ev):

   -23.5719 -23.5142 -23.5142 -23.3855 -23.3210 -23.3180 -23.3180 -23.2354
   -23.2354 -23.0606  -9.0367  -9.0367  -4.8664  -2.1283  -2.1283   1.6332
     2.6855   2.6855

     the Fermi energy is    -2.2660 ev

!    total energy              =    -326.41875734 Ry
     estimated scf accuracy    <          6.3E-12 Ry
     smearing contrib. (-TS)   =       0.00133166 Ry
     internal energy E=F+TS    =    -326.42008900 Ry

     The total energy is F=E-TS. E is the sum of the following terms:
     one-electron contribution =    -856.52354651 Ry
     hartree contribution      =     435.95249447 Ry
     xc contribution           =     -95.00747343 Ry
     ewald contribution        =     189.15843647 Ry

     convergence has been achieved in  11 iterations

     negative rho (up, down):  3.603E-03 0.000E+00

     Forces acting on atoms (cartesian axes, Ry/au):

     atom    1 type  1   force =     0.00000000    0.00000000   -0.00005286
     atom    2 type  1   force =     0.00000000    0.00000000    0.00005286

     Total force =     0.000053     Total SCF correction =     0.000008
     SCF correction compared to forces is large: reduce conv_thr to get better values


     Computing stress (Cartesian axis) and pressure


     negative rho (up, down):  3.603E-03 0.000E+00
          total   stress  (Ry/bohr**3)                   (kbar)     P=        0.05
  -0.00000004  -0.00000000   0.00000000           -0.01       -0.00        0.00
  -0.00000000  -0.00000004   0.00000000           -0.00       -0.01        0.00
   0.00000000   0.00000000   0.00000106            0.00        0.00        0.16


     Writing output data file ../tmp/stanene.save/

     init_run     :     10.47s CPU     10.92s WALL (       2 calls)
     electrons    :   5547.19s CPU   5733.07s WALL (      23 calls)
     update_pot   :     21.20s CPU     21.31s WALL (      21 calls)
     forces       :     53.26s CPU     54.00s WALL (      23 calls)
     stress       :     93.51s CPU     95.17s WALL (      23 calls)

     Called by init_run:
     wfcinit      :      8.48s CPU      8.80s WALL (       2 calls)
     potinit      :      0.62s CPU      0.63s WALL (       2 calls)
     hinit0       :      1.11s CPU      1.13s WALL (       2 calls)

     Called by electrons:
     c_bands      :   4890.44s CPU   5037.32s WALL (     334 calls)
     sum_band     :    604.39s CPU    635.84s WALL (     334 calls)
     v_of_rho     :     15.49s CPU     16.02s WALL (     357 calls)
     newd         :     34.16s CPU     41.39s WALL (     357 calls)
     mix_rho      :      4.72s CPU      4.87s WALL (     334 calls)

     Called by c_bands:
     init_us_2    :     41.84s CPU     42.47s WALL (   43676 calls)
     cegterg      :   4732.36s CPU   4878.03s WALL (   20374 calls)

     Called by *egterg:
     cdiaghg      :     70.48s CPU     71.18s WALL (  101476 calls)
     h_psi        :   2831.17s CPU   2967.83s WALL (  102879 calls)
     s_psi        :    202.17s CPU    203.87s WALL (  102879 calls)
     g_psi        :     19.10s CPU     19.18s WALL (   82383 calls)

     Called by h_psi:
     h_psi:calbec :    351.47s CPU    364.54s WALL (  102879 calls)
     vloc_psi     :   2259.79s CPU   2379.65s WALL (  102879 calls)
     add_vuspsi   :    208.95s CPU    212.79s WALL (  102879 calls)

     General routines
     calbec       :    518.29s CPU    535.00s WALL (  130268 calls)
     fft          :     13.67s CPU     14.08s WALL (    4523 calls)
     ffts         :      0.58s CPU      0.59s WALL (     334 calls)
     fftw         :   2435.42s CPU   2556.91s WALL ( 2471358 calls)

     Parallel routines
     fft_scatt_xy :    217.55s CPU    233.36s WALL ( 2476215 calls)
     fft_scatt_yz :   1305.93s CPU   1355.58s WALL ( 2476215 calls)

     PWSCF        :      1h35m CPU      1h38m WALL


   This run was terminated on:  12: 9:27  22Jan2024            

=------------------------------------------------------------------------------=
   JOB DONE.
=------------------------------------------------------------------------------=
