
     Program PROJWFC v.7.2 starts on 27Jun2024 at  6:35: 0 

     This program is part of the open-source Quantum ESPRESSO suite
     for quantum simulation of materials; please cite
         "P. Giannozzi et al., J. Phys.:Condens. Matter 21 395502 (2009);
         "P. Giannozzi et al., J. Phys.:Condens. Matter 29 465901 (2017);
         "P. Giannozzi et al., J. Chem. Phys. 152 154105 (2020);
          URL http://www.quantum-espresso.org", 
     in publications or presentations arising from this work. More details at
     http://www.quantum-espresso.org/quote

     Parallel version (MPI), running on     6 processors

     MPI processes distributed on     1 nodes
     R & G space division:  proc/nbgrp/npool/nimage =       6
     5512 MiB available memory on the printing compute node when the environment starts


     Reading xml data from directory:

     ../tmp/stanene.save/

     IMPORTANT: XC functional enforced from input :
     Exchange-correlation= PBE
                           (   1   4   3   4   0   0   0)
     Any further DFT definition will be discarded
     Please, verify this is what you really want


     Parallelization info
     --------------------
     sticks:   dense  smooth     PW     G-vecs:    dense   smooth      PW
     Min         431     214     61                75909    26818    4015
     Max         432     215     62                75924    26841    4025
     Sum        2587    1285    367               455489   160939   24117

     Using Slab Decomposition


     negative rho (up, down):  8.722E-05 0.000E+00

     Linear tetrahedron method (read from file) 
     [opt_tetra]  Linear tetrahedron method is used.

     Calling projwave .... 
     Subspace diagonalization in iterative solution of the eigenvalue problem:
     a serial algorithm will be used


  Problem Sizes 
  natomwfc =           18
  nbnd     =           60
  nkstot   =          331
  npwx     =         3408
  nkb      =           36


     Atomic states used for projection
     (read from pseudopotential files):

     state #   1: atom   1 (Sn ), wfc  1 (l=2 m= 1)
     state #   2: atom   1 (Sn ), wfc  1 (l=2 m= 2)
     state #   3: atom   1 (Sn ), wfc  1 (l=2 m= 3)
     state #   4: atom   1 (Sn ), wfc  1 (l=2 m= 4)
     state #   5: atom   1 (Sn ), wfc  1 (l=2 m= 5)
     state #   6: atom   1 (Sn ), wfc  2 (l=0 m= 1)
     state #   7: atom   1 (Sn ), wfc  3 (l=1 m= 1)
     state #   8: atom   1 (Sn ), wfc  3 (l=1 m= 2)
     state #   9: atom   1 (Sn ), wfc  3 (l=1 m= 3)
     state #  10: atom   2 (Sn ), wfc  1 (l=2 m= 1)
     state #  11: atom   2 (Sn ), wfc  1 (l=2 m= 2)
     state #  12: atom   2 (Sn ), wfc  1 (l=2 m= 3)
     state #  13: atom   2 (Sn ), wfc  1 (l=2 m= 4)
     state #  14: atom   2 (Sn ), wfc  1 (l=2 m= 5)
     state #  15: atom   2 (Sn ), wfc  2 (l=0 m= 1)
     state #  16: atom   2 (Sn ), wfc  3 (l=1 m= 1)
     state #  17: atom   2 (Sn ), wfc  3 (l=1 m= 2)
     state #  18: atom   2 (Sn ), wfc  3 (l=1 m= 3)

 k =   0.0000000000  0.0000000000  0.0000000000
==== e(   1) =   -24.11294 eV ==== 
     psi = 0.498*[#   1]+0.498*[#  10]+0.002*[#   6]+0.002*[#  15]
    |psi|^2 = 1.000
==== e(   2) =   -24.09629 eV ==== 
     psi = 0.249*[#   4]+0.249*[#   5]+0.249*[#  13]+0.249*[#  14]+0.001*[#   8]
          +0.001*[#   9]+0.001*[#  17]+0.001*[#  18]
    |psi|^2 = 1.000
==== e(   3) =   -24.09629 eV ==== 
     psi = 0.249*[#   4]+0.249*[#   5]+0.249*[#  13]+0.249*[#  14]+0.001*[#   8]
          +0.001*[#   9]+0.001*[#  17]+0.001*[#  18]
    |psi|^2 = 1.000
==== e(   4) =   -23.99562 eV ==== 
     psi = 0.250*[#   2]+0.250*[#   3]+0.250*[#  11]+0.250*[#  12]
    |psi|^2 = 1.000
==== e(   5) =   -23.99562 eV ==== 
     psi = 0.250*[#   2]+0.250*[#   3]+0.250*[#  11]+0.250*[#  12]
    |psi|^2 = 1.000
==== e(   6) =   -23.83434 eV ==== 
     psi = 0.249*[#   4]+0.249*[#   5]+0.249*[#  13]+0.249*[#  14]+0.001*[#   8]
          +0.001*[#   9]+0.001*[#  17]+0.001*[#  18]
    |psi|^2 = 1.000
==== e(   7) =   -23.83434 eV ==== 
     psi = 0.249*[#   4]+0.249*[#   5]+0.249*[#  13]+0.249*[#  14]+0.001*[#   8]
          +0.001*[#   9]+0.001*[#  17]+0.001*[#  18]
    |psi|^2 = 1.000
==== e(   8) =   -23.76504 eV ==== 
     psi = 0.250*[#   2]+0.250*[#   3]+0.250*[#  11]+0.250*[#  12]
    |psi|^2 = 1.000
==== e(   9) =   -23.76504 eV ==== 
     psi = 0.250*[#   2]+0.250*[#   3]+0.250*[#  11]+0.250*[#  12]
    |psi|^2 = 1.000
==== e(  10) =   -23.70763 eV ==== 
     psi = 0.499*[#   1]+0.499*[#  10]
    |psi|^2 = 1.000
==== e(  11) =   -12.20574 eV ==== 
     psi = 0.497*[#   6]+0.497*[#  15]+0.002*[#   1]+0.002*[#  10]
    |psi|^2 = 0.997
==== e(  12) =    -4.29152 eV ==== 
     psi = 0.499*[#   7]+0.499*[#  16]
    |psi|^2 = 0.997
==== e(  13) =    -3.69917 eV ==== 
     psi = 0.494*[#   6]+0.494*[#  15]
    |psi|^2 = 0.990
==== e(  14) =    -3.35089 eV ==== 
     psi = 0.248*[#   8]+0.248*[#   9]+0.248*[#  17]+0.248*[#  18]+0.001*[#   4]
          +0.001*[#   5]+0.001*[#  13]+0.001*[#  14]
    |psi|^2 = 0.996
==== e(  15) =    -3.35089 eV ==== 
     psi = 0.248*[#   8]+0.248*[#   9]+0.248*[#  17]+0.248*[#  18]+0.001*[#   4]
          +0.001*[#   5]+0.001*[#  13]+0.001*[#  14]
    |psi|^2 = 0.996
==== e(  16) =     0.66622 eV ==== 
     psi = 0.236*[#   8]+0.236*[#   9]+0.236*[#  17]+0.236*[#  18]+0.001*[#   4]
          +0.001*[#   5]+0.001*[#  13]+0.001*[#  14]
    |psi|^2 = 0.948
==== e(  17) =     0.66622 eV ==== 
     psi = 0.236*[#   8]+0.236*[#   9]+0.236*[#  17]+0.236*[#  18]+0.001*[#   4]
          +0.001*[#   5]+0.001*[#  13]+0.001*[#  14]
    |psi|^2 = 0.948
==== e(  18) =     1.00894 eV ==== 

    |psi|^2 = 0.000
==== e(  19) =     1.99558 eV ==== 

    |psi|^2 = 0.000
==== e(  20) =     2.28222 eV ==== 

    |psi|^2 = 0.000
==== e(  21) =     2.33055 eV ==== 
     psi = 0.493*[#   7]+0.493*[#  16]
    |psi|^2 = 0.986
==== e(  22) =     3.42847 eV ==== 

    |psi|^2 = 0.000
==== e(  23) =     3.61656 eV ==== 

    |psi|^2 = 0.000
==== e(  24) =     3.98989 eV ==== 

    |psi|^2 = 0.000
==== e(  25) =     5.72795 eV ==== 

    |psi|^2 = 0.000
==== e(  26) =     6.04909 eV ==== 

    |psi|^2 = 0.000
==== e(  27) =     6.10982 eV ==== 

    |psi|^2 = 0.000
==== e(  28) =     6.10982 eV ==== 

    |psi|^2 = 0.000
==== e(  29) =     7.38291 eV ==== 

    |psi|^2 = 0.000
==== e(  30) =     7.38291 eV ==== 

    |psi|^2 = 0.000
==== e(  31) =     8.17897 eV ==== 

    |psi|^2 = 0.001
==== e(  32) =     9.18014 eV ==== 

    |psi|^2 = 0.000
==== e(  33) =     9.27885 eV ==== 

    |psi|^2 = 0.000
==== e(  34) =     9.59789 eV ==== 

    |psi|^2 = 0.000
==== e(  35) =     9.59789 eV ==== 

    |psi|^2 = 0.000
==== e(  36) =     9.91264 eV ==== 
     psi = 0.001*[#   6]+0.001*[#  15]
    |psi|^2 = 0.003
==== e(  37) =    10.36886 eV ==== 

    |psi|^2 = 0.003
==== e(  38) =    10.36886 eV ==== 

    |psi|^2 = 0.003
==== e(  39) =    10.80264 eV ==== 

    |psi|^2 = 0.000
==== e(  40) =    10.96843 eV ==== 
     psi = 0.002*[#   7]+0.002*[#  16]
    |psi|^2 = 0.005
==== e(  41) =    11.24819 eV ==== 

    |psi|^2 = 0.000
==== e(  42) =    11.24819 eV ==== 

    |psi|^2 = 0.000
==== e(  43) =    11.36545 eV ==== 

    |psi|^2 = 0.000
==== e(  44) =    11.36545 eV ==== 

    |psi|^2 = 0.000
==== e(  45) =    11.39343 eV ==== 

    |psi|^2 = 0.000
==== e(  46) =    11.39343 eV ==== 

    |psi|^2 = 0.000
==== e(  47) =    11.40603 eV ==== 

    |psi|^2 = 0.000
==== e(  48) =    11.45247 eV ==== 

    |psi|^2 = 0.000
==== e(  49) =    11.45247 eV ==== 

    |psi|^2 = 0.000
==== e(  50) =    11.51536 eV ==== 

    |psi|^2 = 0.000
==== e(  51) =    11.55638 eV ==== 

    |psi|^2 = 0.000
==== e(  52) =    12.46148 eV ==== 
     psi = 0.001*[#   7]+0.001*[#  16]
    |psi|^2 = 0.003
==== e(  53) =    12.55376 eV ==== 

    |psi|^2 = 0.000
==== e(  54) =    12.55376 eV ==== 

    |psi|^2 = 0.000
==== e(  55) =    12.69095 eV ==== 

    |psi|^2 = 0.000
==== e(  56) =    12.69095 eV ==== 

    |psi|^2 = 0.000
==== e(  57) =    12.74732 eV ==== 

    |psi|^2 = 0.001
==== e(  58) =    12.77439 eV ==== 

    |psi|^2 = 0.000
==== e(  59) =    12.84233 eV ==== 

    |psi|^2 = 0.000
==== e(  60) =    12.84233 eV ==== 

    |psi|^2 = 0.000

 k =   0.0000000000  0.0192450090  0.0000000000
==== e(   1) =   -24.11306 eV ==== 
     psi = 0.497*[#   1]+0.497*[#  10]+0.002*[#   6]+0.002*[#  15]
    |psi|^2 = 1.000
==== e(   2) =   -24.09704 eV ==== 
     psi = 0.249*[#   4]+0.249*[#   5]+0.249*[#  13]+0.249*[#  14]+0.001*[#   8]
          +0.001*[#   9]+0.001*[#  17]+0.001*[#  18]
    |psi|^2 = 1.000
==== e(   3) =   -24.09684 eV ==== 
     psi = 0.248*[#   4]+0.248*[#   5]+0.248*[#  13]+0.248*[#  14]+0.001*[#   8]
          +0.001*[#   9]+0.001*[#  17]+0.001*[#  18]
    |psi|^2 = 1.000
==== e(   4) =   -23.99569 eV ==== 
     psi = 0.250*[#   2]+0.250*[#   3]+0.250*[#  11]+0.250*[#  12]
    |psi|^2 = 1.000
==== e(   5) =   -23.99552 eV ==== 
     psi = 0.250*[#   2]+0.250*[#   3]+0.250*[#  11]+0.250*[#  12]
    |psi|^2 = 1.000
==== e(   6) =   -23.83365 eV ==== 
     psi = 0.248*[#   4]+0.248*[#   5]+0.248*[#  13]+0.248*[#  14]+0.001*[#   8]
          +0.001*[#   9]+0.001*[#  17]+0.001*[#  18]
    |psi|^2 = 1.000
==== e(   7) =   -23.83352 eV ==== 
     psi = 0.249*[#   4]+0.249*[#   5]+0.249*[#  13]+0.249*[#  14]+0.001*[#   8]
          +0.001*[#   9]+0.001*[#  17]+0.001*[#  18]
    |psi|^2 = 1.000
==== e(   8) =   -23.76517 eV ==== 
     psi = 0.250*[#   2]+0.250*[#   3]+0.250*[#  11]+0.250*[#  12]
    |psi|^2 = 1.000
==== e(   9) =   -23.76498 eV ==== 
     psi = 0.250*[#   2]+0.250*[#   3]+0.250*[#  11]+0.250*[#  12]
    |psi|^2 = 1.000
==== e(  10) =   -23.70761 eV ==== 
     psi = 0.499*[#   1]+0.499*[#  10]
    |psi|^2 = 1.000
==== e(  11) =   -12.20337 eV ==== 
     psi = 0.496*[#   6]+0.496*[#  15]+0.002*[#   1]+0.002*[#  10]
    |psi|^2 = 0.997
==== e(  12) =    -4.28906 eV ==== 
     psi = 0.499*[#   7]+0.499*[#  16]
    |psi|^2 = 0.997
==== e(  13) =    -3.81642 eV ==== 
     psi = 0.396*[#   6]+0.396*[#  15]+0.050*[#   8]+0.050*[#   9]+0.050*[#  17]
          +0.050*[#  18]
    |psi|^2 = 0.992
==== e(  14) =    -3.35635 eV ==== 
     psi = 0.248*[#   8]+0.248*[#   9]+0.248*[#  17]+0.248*[#  18]+0.001*[#   4]
          +0.001*[#   5]+0.001*[#  13]+0.001*[#  14]
    |psi|^2 = 0.996
==== e(  15) =    -3.23647 eV ==== 
     psi = 0.198*[#   8]+0.198*[#   9]+0.198*[#  17]+0.198*[#  18]+0.099*[#   6]
          +0.099*[#  15]
    |psi|^2 = 0.994
==== e(  16) =     0.66283 eV ==== 
     psi = 0.235*[#   8]+0.235*[#   9]+0.235*[#  17]+0.235*[#  18]+0.001*[#   4]
          +0.001*[#   5]+0.001*[#  13]+0.001*[#  14]
    |psi|^2 = 0.945
==== e(  17) =     0.67647 eV ==== 
     psi = 0.236*[#   8]+0.236*[#   9]+0.236*[#  17]+0.236*[#  18]+0.001*[#   4]
          +0.001*[#   5]+0.001*[#  13]+0.001*[#  14]
    |psi|^2 = 0.948
==== e(  18) =     1.01275 eV ==== 

    |psi|^2 = 0.003
==== e(  19) =     1.99801 eV ==== 

    |psi|^2 = 0.000
==== e(  20) =     2.28483 eV ==== 

    |psi|^2 = 0.000
==== e(  21) =     2.31883 eV ==== 
     psi = 0.493*[#   7]+0.493*[#  16]
    |psi|^2 = 0.985
==== e(  22) =     3.43083 eV ==== 

    |psi|^2 = 0.000
==== e(  23) =     3.62149 eV ==== 

    |psi|^2 = 0.000
==== e(  24) =     4.00207 eV ==== 

    |psi|^2 = 0.001
==== e(  25) =     5.72909 eV ==== 

    |psi|^2 = 0.000
==== e(  26) =     6.05152 eV ==== 

    |psi|^2 = 0.000
==== e(  27) =     6.09753 eV ==== 

    |psi|^2 = 0.000
==== e(  28) =     6.11102 eV ==== 

    |psi|^2 = 0.001
==== e(  29) =     7.35747 eV ==== 

    |psi|^2 = 0.000
==== e(  30) =     7.39974 eV ==== 

    |psi|^2 = 0.000
==== e(  31) =     8.22182 eV ==== 

    |psi|^2 = 0.000
==== e(  32) =     9.18597 eV ==== 

    |psi|^2 = 0.000
==== e(  33) =     9.28062 eV ==== 

    |psi|^2 = 0.000
==== e(  34) =     9.47665 eV ==== 

    |psi|^2 = 0.001
==== e(  35) =     9.57197 eV ==== 

    |psi|^2 = 0.000
==== e(  36) =    10.00438 eV ==== 
     psi = 0.001*[#   6]+0.001*[#  15]
    |psi|^2 = 0.002
==== e(  37) =    10.32016 eV ==== 

    |psi|^2 = 0.002
==== e(  38) =    10.39801 eV ==== 

    |psi|^2 = 0.003
==== e(  39) =    10.84497 eV ==== 
     psi = 0.002*[#   7]+0.002*[#  16]
    |psi|^2 = 0.003
==== e(  40) =    10.88050 eV ==== 

    |psi|^2 = 0.000
==== e(  41) =    11.12031 eV ==== 

    |psi|^2 = 0.000
==== e(  42) =    11.15737 eV ==== 

    |psi|^2 = 0.000
==== e(  43) =    11.18261 eV ==== 

    |psi|^2 = 0.001
==== e(  44) =    11.25713 eV ==== 

    |psi|^2 = 0.000
==== e(  45) =    11.32538 eV ==== 

    |psi|^2 = 0.000
==== e(  46) =    11.40654 eV ==== 

    |psi|^2 = 0.001
==== e(  47) =    11.48897 eV ==== 

    |psi|^2 = 0.000
==== e(  48) =    11.56640 eV ==== 

    |psi|^2 = 0.000
==== e(  49) =    11.59421 eV ==== 

    |psi|^2 = 0.000
==== e(  50) =    11.69899 eV ==== 

    |psi|^2 = 0.000
==== e(  51) =    11.75758 eV ==== 

    |psi|^2 = 0.000
==== e(  52) =    12.32466 eV ==== 

    |psi|^2 = 0.002
==== e(  53) =    12.38870 eV ==== 

    |psi|^2 = 0.000
==== e(  54) =    12.50162 eV ==== 

    |psi|^2 = 0.000
==== e(  55) =    12.60263 eV ==== 

    |psi|^2 = 0.000
==== e(  56) =    12.61159 eV ==== 

    |psi|^2 = 0.000
==== e(  57) =    12.76962 eV ==== 

    |psi|^2 = 0.001
==== e(  58) =    12.80267 eV ==== 

    |psi|^2 = 0.000
==== e(  59) =    12.91553 eV ==== 

    |psi|^2 = 0.000
==== e(  60) =    12.93589 eV ==== 

    |psi|^2 = 0.000

 k =   0.0000000000  0.0384900179  0.0000000000
==== e(   1) =   -24.11349 eV ==== 
     psi = 0.492*[#   1]+0.492*[#  10]+0.003*[#   4]+0.003*[#   5]+0.003*[#  13]
          +0.003*[#  14]+0.002*[#   6]+0.002*[#  15]
    |psi|^2 = 1.000
==== e(   2) =   -24.09925 eV ==== 
     psi = 0.249*[#   4]+0.249*[#   5]+0.249*[#  13]+0.249*[#  14]+0.001*[#   8]
          +0.001*[#   9]+0.001*[#  17]+0.001*[#  18]
    |psi|^2 = 1.000
==== e(   3) =   -24.09838 eV ==== 
     psi = 0.246*[#   4]+0.246*[#   5]+0.246*[#  13]+0.246*[#  14]+0.005*[#   1]
          +0.005*[#  10]+0.001*[#   8]+0.001*[#   9]+0.001*[#  17]+0.001*[#  18]
          
    |psi|^2 = 1.000
==== e(   4) =   -23.99587 eV ==== 
     psi = 0.250*[#   2]+0.250*[#   3]+0.250*[#  11]+0.250*[#  12]
    |psi|^2 = 1.000
==== e(   5) =   -23.99519 eV ==== 
     psi = 0.250*[#   2]+0.250*[#   3]+0.250*[#  11]+0.250*[#  12]
    |psi|^2 = 1.000
==== e(   6) =   -23.83161 eV ==== 
     psi = 0.247*[#   4]+0.247*[#   5]+0.247*[#  13]+0.247*[#  14]+0.003*[#   1]
          +0.003*[#  10]+0.001*[#   8]+0.001*[#   9]+0.001*[#  17]+0.001*[#  18]
          
    |psi|^2 = 1.000
==== e(   7) =   -23.83109 eV ==== 
     psi = 0.249*[#   4]+0.249*[#   5]+0.249*[#  13]+0.249*[#  14]+0.001*[#   8]
          +0.001*[#   9]+0.001*[#  17]+0.001*[#  18]
    |psi|^2 = 1.000
==== e(   8) =   -23.76554 eV ==== 
     psi = 0.250*[#   2]+0.250*[#   3]+0.250*[#  11]+0.250*[#  12]
    |psi|^2 = 1.000
==== e(   9) =   -23.76480 eV ==== 
     psi = 0.250*[#   2]+0.250*[#   3]+0.250*[#  11]+0.250*[#  12]
    |psi|^2 = 1.000
==== e(  10) =   -23.70753 eV ==== 
     psi = 0.498*[#   1]+0.498*[#  10]
    |psi|^2 = 1.000
==== e(  11) =   -12.19626 eV ==== 
     psi = 0.495*[#   6]+0.495*[#  15]+0.002*[#   1]+0.002*[#  10]
    |psi|^2 = 0.997
==== e(  12) =    -4.28170 eV ==== 
     psi = 0.499*[#   7]+0.499*[#  16]
    |psi|^2 = 0.997
==== e(  13) =    -4.02502 eV ==== 
     psi = 0.334*[#   6]+0.334*[#  15]+0.080*[#   8]+0.080*[#   9]+0.080*[#  17]
          +0.080*[#  18]
    |psi|^2 = 0.993
==== e(  14) =    -3.37253 eV ==== 
     psi = 0.248*[#   8]+0.248*[#   9]+0.248*[#  17]+0.248*[#  18]+0.001*[#   4]
          +0.001*[#   5]+0.001*[#  13]+0.001*[#  14]
    |psi|^2 = 0.996
==== e(  15) =    -3.03659 eV ==== 
     psi = 0.167*[#   8]+0.167*[#   9]+0.167*[#  17]+0.167*[#  18]+0.160*[#   6]
          +0.160*[#  15]
    |psi|^2 = 0.992
==== e(  16) =     0.65365 eV ==== 
     psi = 0.232*[#   8]+0.232*[#   9]+0.232*[#  17]+0.232*[#  18]+0.001*[#   6]
          +0.001*[#  15]+0.001*[#   4]+0.001*[#   5]+0.001*[#  13]+0.001*[#  14]
          
    |psi|^2 = 0.935
==== e(  17) =     0.70703 eV ==== 
     psi = 0.236*[#   8]+0.236*[#   9]+0.236*[#  17]+0.236*[#  18]+0.001*[#   4]
          +0.001*[#   5]+0.001*[#  13]+0.001*[#  14]
    |psi|^2 = 0.947
==== e(  18) =     1.02382 eV ==== 
     psi = 0.002*[#   8]+0.002*[#   9]+0.002*[#  17]+0.002*[#  18]
    |psi|^2 = 0.009
==== e(  19) =     2.00533 eV ==== 

    |psi|^2 = 0.000
==== e(  20) =     2.28414 eV ==== 
     psi = 0.491*[#   7]+0.491*[#  16]
    |psi|^2 = 0.982
==== e(  21) =     2.29265 eV ==== 

    |psi|^2 = 0.000
==== e(  22) =     3.43791 eV ==== 

    |psi|^2 = 0.000
==== e(  23) =     3.63551 eV ==== 

    |psi|^2 = 0.001
==== e(  24) =     4.03899 eV ==== 

    |psi|^2 = 0.003
==== e(  25) =     5.73186 eV ==== 

    |psi|^2 = 0.000
==== e(  26) =     6.05884 eV ==== 

    |psi|^2 = 0.000
==== e(  27) =     6.06250 eV ==== 

    |psi|^2 = 0.000
==== e(  28) =     6.11322 eV ==== 
     psi = 0.002*[#   7]+0.002*[#  16]
    |psi|^2 = 0.005
==== e(  29) =     7.29910 eV ==== 

    |psi|^2 = 0.000
==== e(  30) =     7.44837 eV ==== 

    |psi|^2 = 0.000
==== e(  31) =     8.33304 eV ==== 

    |psi|^2 = 0.000
==== e(  32) =     9.20435 eV ==== 

    |psi|^2 = 0.000
==== e(  33) =     9.25478 eV ==== 

    |psi|^2 = 0.001
==== e(  34) =     9.29078 eV ==== 

    |psi|^2 = 0.000
==== e(  35) =     9.50383 eV ==== 

    |psi|^2 = 0.000
==== e(  36) =    10.05453 eV ==== 

    |psi|^2 = 0.002
==== e(  37) =    10.31699 eV ==== 

    |psi|^2 = 0.001
==== e(  38) =    10.47489 eV ==== 

    |psi|^2 = 0.002
==== e(  39) =    10.61271 eV ==== 
     psi = 0.001*[#   7]+0.001*[#  16]
    |psi|^2 = 0.002
==== e(  40) =    10.83708 eV ==== 

    |psi|^2 = 0.000
==== e(  41) =    11.02318 eV ==== 

    |psi|^2 = 0.001
==== e(  42) =    11.02356 eV ==== 

    |psi|^2 = 0.000
==== e(  43) =    11.02805 eV ==== 

    |psi|^2 = 0.001
==== e(  44) =    11.12193 eV ==== 

    |psi|^2 = 0.000
==== e(  45) =    11.22290 eV ==== 

    |psi|^2 = 0.000
==== e(  46) =    11.54864 eV ==== 

    |psi|^2 = 0.002
==== e(  47) =    11.63671 eV ==== 

    |psi|^2 = 0.000
==== e(  48) =    11.71878 eV ==== 

    |psi|^2 = 0.000
==== e(  49) =    11.75893 eV ==== 

    |psi|^2 = 0.000
==== e(  50) =    11.96720 eV ==== 

    |psi|^2 = 0.000
==== e(  51) =    12.04233 eV ==== 

    |psi|^2 = 0.000
==== e(  52) =    12.09027 eV ==== 

    |psi|^2 = 0.001
==== e(  53) =    12.14959 eV ==== 

    |psi|^2 = 0.000
==== e(  54) =    12.39596 eV ==== 

    |psi|^2 = 0.000
==== e(  55) =    12.46143 eV ==== 

    |psi|^2 = 0.000
==== e(  56) =    12.47110 eV ==== 

    |psi|^2 = 0.000
==== e(  57) =    12.63715 eV ==== 

    |psi|^2 = 0.000
==== e(  58) =    12.90897 eV ==== 

    |psi|^2 = 0.001
==== e(  59) =    13.07329 eV ==== 

    |psi|^2 = 0.001
==== e(  60) =    13.08334 eV ==== 

    |psi|^2 = 0.000

 k =   0.0000000000  0.0577350269  0.0000000000
==== e(   1) =   -24.11451 eV ==== 
     psi = 0.470*[#   1]+0.470*[#  10]+0.014*[#   4]+0.014*[#   5]+0.014*[#  13]
          +0.014*[#  14]+0.002*[#   6]+0.002*[#  15]
    |psi|^2 = 1.000
==== e(   2) =   -24.10282 eV ==== 
     psi = 0.249*[#   4]+0.249*[#   5]+0.249*[#  13]+0.249*[#  14]+0.001*[#   8]
          +0.001*[#   9]+0.001*[#  17]+0.001*[#  18]
    |psi|^2 = 1.000
==== e(   3) =   -24.10055 eV ==== 
     psi = 0.236*[#   4]+0.236*[#   5]+0.236*[#  13]+0.236*[#  14]+0.025*[#   1]
          +0.025*[#  10]+0.001*[#   8]+0.001*[#   9]+0.001*[#  17]+0.001*[#  18]
          
    |psi|^2 = 1.000
==== e(   4) =   -23.99617 eV ==== 
     psi = 0.250*[#   2]+0.250*[#   3]+0.250*[#  11]+0.250*[#  12]
    |psi|^2 = 1.000
==== e(   5) =   -23.99465 eV ==== 
     psi = 0.250*[#   2]+0.250*[#   3]+0.250*[#  11]+0.250*[#  12]
    |psi|^2 = 1.000
==== e(   6) =   -23.82833 eV ==== 
     psi = 0.246*[#   4]+0.246*[#   5]+0.246*[#  13]+0.246*[#  14]+0.006*[#   1]
          +0.006*[#  10]+0.001*[#   8]+0.001*[#   9]+0.001*[#  17]+0.001*[#  18]
          
    |psi|^2 = 1.000
==== e(   7) =   -23.82717 eV ==== 
     psi = 0.249*[#   4]+0.249*[#   5]+0.249*[#  13]+0.249*[#  14]+0.001*[#   8]
          +0.001*[#   9]+0.001*[#  17]+0.001*[#  18]
    |psi|^2 = 1.000
==== e(   8) =   -23.76617 eV ==== 
     psi = 0.250*[#   2]+0.250*[#   3]+0.250*[#  11]+0.250*[#  12]
    |psi|^2 = 1.000
==== e(   9) =   -23.76449 eV ==== 
     psi = 0.250*[#   2]+0.250*[#   3]+0.250*[#  11]+0.250*[#  12]
    |psi|^2 = 1.000
==== e(  10) =   -23.70740 eV ==== 
     psi = 0.496*[#   1]+0.496*[#  10]+0.002*[#   4]+0.002*[#   5]+0.002*[#  13]
          +0.002*[#  14]
    |psi|^2 = 1.000
==== e(  11) =   -12.18442 eV ==== 
     psi = 0.493*[#   6]+0.493*[#  15]+0.002*[#   1]+0.002*[#   8]+0.002*[#   9]
          +0.002*[#  10]+0.002*[#  17]+0.002*[#  18]
    |psi|^2 = 0.997
==== e(  12) =    -4.26943 eV ==== 
     psi = 0.499*[#   7]+0.499*[#  16]
    |psi|^2 = 0.997
==== e(  13) =    -4.25081 eV ==== 
     psi = 0.308*[#   6]+0.308*[#  15]+0.094*[#   8]+0.094*[#   9]+0.094*[#  17]
          +0.094*[#  18]
    |psi|^2 = 0.994
==== e(  14) =    -3.39888 eV ==== 
     psi = 0.248*[#   8]+0.248*[#   9]+0.248*[#  17]+0.248*[#  18]+0.001*[#   4]
          +0.001*[#   5]+0.001*[#  13]+0.001*[#  14]
    |psi|^2 = 0.996
==== e(  15) =    -2.82621 eV ==== 
     psi = 0.186*[#   6]+0.186*[#  15]+0.154*[#   8]+0.154*[#   9]+0.154*[#  17]
          +0.154*[#  18]
    |psi|^2 = 0.991
==== e(  16) =     0.64131 eV ==== 
     psi = 0.228*[#   8]+0.228*[#   9]+0.228*[#  17]+0.228*[#  18]+0.003*[#   6]
          +0.003*[#  15]+0.001*[#   4]+0.001*[#   5]+0.001*[#  13]+0.001*[#  14]
          
    |psi|^2 = 0.923
==== e(  17) =     0.75732 eV ==== 
     psi = 0.235*[#   8]+0.235*[#   9]+0.235*[#  17]+0.235*[#  18]+0.001*[#   4]
          +0.001*[#   5]+0.001*[#  13]+0.001*[#  14]
    |psi|^2 = 0.946
==== e(  18) =     1.04135 eV ==== 
     psi = 0.004*[#   8]+0.004*[#   9]+0.004*[#  17]+0.004*[#  18]
    |psi|^2 = 0.016
==== e(  19) =     2.01750 eV ==== 

    |psi|^2 = 0.000
==== e(  20) =     2.22773 eV ==== 
     psi = 0.488*[#   7]+0.488*[#  16]
    |psi|^2 = 0.976
==== e(  21) =     2.30564 eV ==== 

    |psi|^2 = 0.000
==== e(  22) =     3.44968 eV ==== 

    |psi|^2 = 0.000
==== e(  23) =     3.65675 eV ==== 

    |psi|^2 = 0.001
==== e(  24) =     4.10143 eV ==== 
     psi = 0.002*[#   8]+0.002*[#   9]+0.002*[#  17]+0.002*[#  18]
    |psi|^2 = 0.006
==== e(  25) =     5.73431 eV ==== 

    |psi|^2 = 0.000
==== e(  26) =     6.00923 eV ==== 

    |psi|^2 = 0.000
==== e(  27) =     6.07102 eV ==== 

    |psi|^2 = 0.000
==== e(  28) =     6.11273 eV ==== 
     psi = 0.005*[#   7]+0.005*[#  16]
    |psi|^2 = 0.010
==== e(  29) =     7.23956 eV ==== 

    |psi|^2 = 0.001
==== e(  30) =     7.52430 eV ==== 

    |psi|^2 = 0.000
==== e(  31) =     8.48183 eV ==== 

    |psi|^2 = 0.000
==== e(  32) =     9.01899 eV ==== 

    |psi|^2 = 0.001
==== e(  33) =     9.23831 eV ==== 

    |psi|^2 = 0.000
==== e(  34) =     9.29693 eV ==== 

    |psi|^2 = 0.000
==== e(  35) =     9.41091 eV ==== 

    |psi|^2 = 0.001
==== e(  36) =     9.95031 eV ==== 

    |psi|^2 = 0.002
==== e(  37) =    10.35402 eV ==== 

    |psi|^2 = 0.002
==== e(  38) =    10.41280 eV ==== 

    |psi|^2 = 0.001
==== e(  39) =    10.57713 eV ==== 

    |psi|^2 = 0.002
==== e(  40) =    10.61129 eV ==== 

    |psi|^2 = 0.001
==== e(  41) =    10.87066 eV ==== 

    |psi|^2 = 0.001
==== e(  42) =    10.88955 eV ==== 

    |psi|^2 = 0.000
==== e(  43) =    10.99015 eV ==== 

    |psi|^2 = 0.000
==== e(  44) =    10.99706 eV ==== 

    |psi|^2 = 0.000
==== e(  45) =    11.34385 eV ==== 

    |psi|^2 = 0.001
==== e(  46) =    11.68246 eV ==== 
     psi = 0.001*[#   7]+0.001*[#  16]
    |psi|^2 = 0.002
==== e(  47) =    11.79287 eV ==== 

    |psi|^2 = 0.000
==== e(  48) =    11.84677 eV ==== 

    |psi|^2 = 0.000
==== e(  49) =    11.85058 eV ==== 

    |psi|^2 = 0.000
==== e(  50) =    11.87423 eV ==== 

    |psi|^2 = 0.000
==== e(  51) =    11.95411 eV ==== 

    |psi|^2 = 0.000
==== e(  52) =    12.26468 eV ==== 

    |psi|^2 = 0.000
==== e(  53) =    12.28242 eV ==== 

    |psi|^2 = 0.000
==== e(  54) =    12.32608 eV ==== 

    |psi|^2 = 0.000
==== e(  55) =    12.34072 eV ==== 

    |psi|^2 = 0.000
==== e(  56) =    12.35129 eV ==== 

    |psi|^2 = 0.000
==== e(  57) =    12.51311 eV ==== 

    |psi|^2 = 0.000
==== e(  58) =    12.97386 eV ==== 

    |psi|^2 = 0.000
==== e(  59) =    13.21822 eV ==== 

    |psi|^2 = 0.001
==== e(  60) =    13.23992 eV ==== 

    |psi|^2 = 0.000

 k =   0.0000000000  0.0769800359  0.0000000000
==== e(   1) =   -24.11664 eV ==== 
     psi = 0.413*[#   1]+0.413*[#  10]+0.043*[#   4]+0.043*[#   5]+0.043*[#  13]
          +0.043*[#  14]+0.001*[#   6]+0.001*[#  15]
    |psi|^2 = 1.000
==== e(   2) =   -24.10760 eV ==== 
     psi = 0.249*[#   4]+0.249*[#   5]+0.249*[#  13]+0.249*[#  14]+0.001*[#   8]
          +0.001*[#   9]+0.001*[#  17]+0.001*[#  18]
    |psi|^2 = 1.000
==== e(   3) =   -24.10271 eV ==== 
     psi = 0.209*[#   4]+0.209*[#   5]+0.209*[#  13]+0.209*[#  14]+0.080*[#   1]
          +0.080*[#  10]+0.001*[#   8]+0.001*[#   9]+0.001*[#  17]+0.001*[#  18]
          
    |psi|^2 = 1.000
==== e(   4) =   -23.99659 eV ==== 
     psi = 0.250*[#   2]+0.250*[#   3]+0.250*[#  11]+0.250*[#  12]
    |psi|^2 = 1.000
==== e(   5) =   -23.99389 eV ==== 
     psi = 0.250*[#   2]+0.250*[#   3]+0.250*[#  11]+0.250*[#  12]
    |psi|^2 = 1.000
==== e(   6) =   -23.82395 eV ==== 
     psi = 0.243*[#   4]+0.243*[#   5]+0.243*[#  13]+0.243*[#  14]+0.011*[#   1]
          +0.011*[#  10]+0.001*[#   8]+0.001*[#   9]+0.001*[#  17]+0.001*[#  18]
          
    |psi|^2 = 1.000
==== e(   7) =   -23.82189 eV ==== 
     psi = 0.249*[#   4]+0.249*[#   5]+0.249*[#  13]+0.249*[#  14]+0.001*[#   8]
          +0.001*[#   9]+0.001*[#  17]+0.001*[#  18]
    |psi|^2 = 1.000
==== e(   8) =   -23.76703 eV ==== 
     psi = 0.250*[#   2]+0.250*[#   3]+0.250*[#  11]+0.250*[#  12]
    |psi|^2 = 1.000
==== e(   9) =   -23.76408 eV ==== 
     psi = 0.250*[#   2]+0.250*[#   3]+0.250*[#  11]+0.250*[#  12]
    |psi|^2 = 1.000
==== e(  10) =   -23.70718 eV ==== 
     psi = 0.494*[#   1]+0.494*[#  10]+0.003*[#   4]+0.003*[#   5]+0.003*[#  13]
          +0.003*[#  14]
    |psi|^2 = 1.000
==== e(  11) =   -12.16786 eV ==== 
     psi = 0.491*[#   6]+0.491*[#  15]+0.003*[#   8]+0.003*[#   9]+0.003*[#  17]
          +0.003*[#  18]+0.002*[#   1]+0.002*[#  10]
    |psi|^2 = 0.997
==== e(  12) =    -4.48161 eV ==== 
     psi = 0.294*[#   6]+0.294*[#  15]+0.101*[#   8]+0.101*[#   9]+0.101*[#  17]
          +0.101*[#  18]
    |psi|^2 = 0.995
==== e(  13) =    -4.25228 eV ==== 
     psi = 0.498*[#   7]+0.498*[#  16]
    |psi|^2 = 0.997
==== e(  14) =    -3.43452 eV ==== 
     psi = 0.248*[#   8]+0.248*[#   9]+0.248*[#  17]+0.248*[#  18]+0.001*[#   4]
          +0.001*[#   5]+0.001*[#  13]+0.001*[#  14]
    |psi|^2 = 0.996
==== e(  15) =    -2.61885 eV ==== 
     psi = 0.200*[#   6]+0.200*[#  15]+0.147*[#   8]+0.147*[#   9]+0.147*[#  17]
          +0.147*[#  18]
    |psi|^2 = 0.990
==== e(  16) =     0.62958 eV ==== 
     psi = 0.223*[#   8]+0.223*[#   9]+0.223*[#  17]+0.223*[#  18]+0.006*[#   6]
          +0.006*[#  15]+0.001*[#   4]+0.001*[#   5]+0.001*[#  13]+0.001*[#  14]
          
    |psi|^2 = 0.910
==== e(  17) =     0.82647 eV ==== 
     psi = 0.235*[#   8]+0.235*[#   9]+0.235*[#  17]+0.235*[#  18]+0.001*[#   4]
          +0.001*[#   5]+0.001*[#  13]+0.001*[#  14]
    |psi|^2 = 0.944
==== e(  18) =     1.06451 eV ==== 
     psi = 0.005*[#   8]+0.005*[#   9]+0.005*[#  17]+0.005*[#  18]
    |psi|^2 = 0.022
==== e(  19) =     2.03447 eV ==== 

    |psi|^2 = 0.001
==== e(  20) =     2.15151 eV ==== 
     psi = 0.485*[#   7]+0.485*[#  16]
    |psi|^2 = 0.970
==== e(  21) =     2.32377 eV ==== 

    |psi|^2 = 0.000
==== e(  22) =     3.46611 eV ==== 

    |psi|^2 = 0.000
==== e(  23) =     3.68329 eV ==== 

    |psi|^2 = 0.001
==== e(  24) =     4.18968 eV ==== 
     psi = 0.003*[#   8]+0.003*[#   9]+0.003*[#  17]+0.003*[#  18]
    |psi|^2 = 0.011
==== e(  25) =     5.73276 eV ==== 

    |psi|^2 = 0.001
==== e(  26) =     5.94298 eV ==== 

    |psi|^2 = 0.000
==== e(  27) =     6.08807 eV ==== 

    |psi|^2 = 0.000
==== e(  28) =     6.10579 eV ==== 
     psi = 0.007*[#   7]+0.007*[#  16]
    |psi|^2 = 0.015
==== e(  29) =     7.20261 eV ==== 
     psi = 0.001*[#   7]+0.001*[#  16]
    |psi|^2 = 0.002
==== e(  30) =     7.62226 eV ==== 

    |psi|^2 = 0.000
==== e(  31) =     8.64277 eV ==== 

    |psi|^2 = 0.000
==== e(  32) =     8.77230 eV ==== 

    |psi|^2 = 0.002
==== e(  33) =     9.29403 eV ==== 

    |psi|^2 = 0.000
==== e(  34) =     9.30599 eV ==== 

    |psi|^2 = 0.001
==== e(  35) =     9.30885 eV ==== 

    |psi|^2 = 0.000
==== e(  36) =     9.81421 eV ==== 

    |psi|^2 = 0.002
==== e(  37) =    10.08939 eV ==== 

    |psi|^2 = 0.001
==== e(  38) =    10.24124 eV ==== 

    |psi|^2 = 0.000
==== e(  39) =    10.66584 eV ==== 

    |psi|^2 = 0.001
==== e(  40) =    10.68075 eV ==== 

    |psi|^2 = 0.001
==== e(  41) =    10.72705 eV ==== 

    |psi|^2 = 0.001
==== e(  42) =    10.75914 eV ==== 

    |psi|^2 = 0.000
==== e(  43) =    10.86863 eV ==== 

    |psi|^2 = 0.000
==== e(  44) =    10.90967 eV ==== 

    |psi|^2 = 0.001
==== e(  45) =    11.53850 eV ==== 

    |psi|^2 = 0.001
==== e(  46) =    11.57329 eV ==== 

    |psi|^2 = 0.001
==== e(  47) =    11.62019 eV ==== 

    |psi|^2 = 0.001
==== e(  48) =    11.86885 eV ==== 

    |psi|^2 = 0.002
==== e(  49) =    11.94799 eV ==== 

    |psi|^2 = 0.000
==== e(  50) =    12.00925 eV ==== 

    |psi|^2 = 0.000
==== e(  51) =    12.09730 eV ==== 

    |psi|^2 = 0.000
==== e(  52) =    12.19526 eV ==== 

    |psi|^2 = 0.001
==== e(  53) =    12.21769 eV ==== 

    |psi|^2 = 0.000
==== e(  54) =    12.22125 eV ==== 

    |psi|^2 = 0.000
==== e(  55) =    12.37371 eV ==== 

    |psi|^2 = 0.000
==== e(  56) =    12.56642 eV ==== 

    |psi|^2 = 0.000
==== e(  57) =    12.68691 eV ==== 

    |psi|^2 = 0.000
==== e(  58) =    13.01177 eV ==== 

    |psi|^2 = 0.000
==== e(  59) =    13.33166 eV ==== 

    |psi|^2 = 0.000
==== e(  60) =    13.37224 eV ==== 

    |psi|^2 = 0.001

 k =   0.0000000000  0.0962250449  0.0000000000
==== e(   1) =   -24.12039 eV ==== 
     psi = 0.329*[#   1]+0.329*[#  10]+0.085*[#   4]+0.085*[#   5]+0.085*[#  13]
          +0.085*[#  14]+0.001*[#   6]+0.001*[#  15]
    |psi|^2 = 1.000
==== e(   2) =   -24.11341 eV ==== 
     psi = 0.249*[#   4]+0.249*[#   5]+0.249*[#  13]+0.249*[#  14]+0.001*[#   8]
          +0.001*[#   9]+0.001*[#  17]+0.001*[#  18]
    |psi|^2 = 1.000
==== e(   3) =   -24.10417 eV ==== 
     psi = 0.168*[#   4]+0.168*[#   5]+0.168*[#  13]+0.168*[#  14]+0.162*[#   1]
          +0.162*[#  10]
    |psi|^2 = 1.000
==== e(   4) =   -23.99712 eV ==== 
     psi = 0.250*[#   2]+0.250*[#   3]+0.250*[#  11]+0.250*[#  12]
    |psi|^2 = 1.000
==== e(   5) =   -23.99292 eV ==== 
     psi = 0.250*[#   2]+0.250*[#   3]+0.250*[#  11]+0.250*[#  12]
    |psi|^2 = 1.000
==== e(   6) =   -23.81867 eV ==== 
     psi = 0.240*[#   4]+0.240*[#   5]+0.240*[#  13]+0.240*[#  14]+0.017*[#   1]
          +0.017*[#  10]+0.001*[#   8]+0.001*[#   9]+0.001*[#  17]+0.001*[#  18]
          
    |psi|^2 = 1.000
==== e(   7) =   -23.81544 eV ==== 
     psi = 0.249*[#   4]+0.249*[#   5]+0.249*[#  13]+0.249*[#  14]+0.001*[#   8]
          +0.001*[#   9]+0.001*[#  17]+0.001*[#  18]
    |psi|^2 = 1.000
==== e(   8) =   -23.76814 eV ==== 
     psi = 0.250*[#   2]+0.250*[#   3]+0.250*[#  11]+0.250*[#  12]
    |psi|^2 = 1.000
==== e(   9) =   -23.76355 eV ==== 
     psi = 0.250*[#   2]+0.250*[#   3]+0.250*[#  11]+0.250*[#  12]
    |psi|^2 = 1.000
==== e(  10) =   -23.70686 eV ==== 
     psi = 0.490*[#   1]+0.490*[#  10]+0.005*[#   4]+0.005*[#   5]+0.005*[#  13]
          +0.005*[#  14]
    |psi|^2 = 1.000
==== e(  11) =   -12.14658 eV ==== 
     psi = 0.488*[#   6]+0.488*[#  15]+0.004*[#   8]+0.004*[#   9]+0.004*[#  17]
          +0.004*[#  18]+0.002*[#   1]+0.002*[#  10]
    |psi|^2 = 0.997
==== e(  12) =    -4.71399 eV ==== 
     psi = 0.285*[#   6]+0.285*[#  15]+0.105*[#   8]+0.105*[#   9]+0.105*[#  17]
          +0.105*[#  18]
    |psi|^2 = 0.996
==== e(  13) =    -4.23027 eV ==== 
     psi = 0.498*[#   7]+0.498*[#  16]
    |psi|^2 = 0.997
==== e(  14) =    -3.47836 eV ==== 
     psi = 0.248*[#   8]+0.248*[#   9]+0.248*[#  17]+0.248*[#  18]+0.001*[#   4]
          +0.001*[#   5]+0.001*[#  13]+0.001*[#  14]
    |psi|^2 = 0.996
==== e(  15) =    -2.41987 eV ==== 
     psi = 0.208*[#   6]+0.208*[#  15]+0.142*[#   8]+0.142*[#   9]+0.142*[#  17]
          +0.142*[#  18]
    |psi|^2 = 0.989
==== e(  16) =     0.62285 eV ==== 
     psi = 0.219*[#   8]+0.219*[#   9]+0.219*[#  17]+0.219*[#  18]+0.009*[#   6]
          +0.009*[#  15]+0.001*[#   4]+0.001*[#   5]+0.001*[#  13]+0.001*[#  14]
          
    |psi|^2 = 0.898
==== e(  17) =     0.91336 eV ==== 
     psi = 0.234*[#   8]+0.234*[#   9]+0.234*[#  17]+0.234*[#  18]+0.001*[#   4]
          +0.001*[#   5]+0.001*[#  13]+0.001*[#  14]
    |psi|^2 = 0.942
==== e(  18) =     1.09272 eV ==== 
     psi = 0.006*[#   8]+0.006*[#   9]+0.006*[#  17]+0.006*[#  18]
    |psi|^2 = 0.027
==== e(  19) =     2.05204 eV ==== 
     psi = 0.211*[#   7]+0.211*[#  16]
    |psi|^2 = 0.423
==== e(  20) =     2.06194 eV ==== 
     psi = 0.270*[#   7]+0.270*[#  16]
    |psi|^2 = 0.541
==== e(  21) =     2.34699 eV ==== 

    |psi|^2 = 0.000
==== e(  22) =     3.48714 eV ==== 

    |psi|^2 = 0.000
==== e(  23) =     3.71386 eV ==== 

    |psi|^2 = 0.001
==== e(  24) =     4.30302 eV ==== 
     psi = 0.004*[#   8]+0.004*[#   9]+0.004*[#  17]+0.004*[#  18]
    |psi|^2 = 0.016
==== e(  25) =     5.72135 eV ==== 
     psi = 0.001*[#   7]+0.001*[#  16]
    |psi|^2 = 0.002
==== e(  26) =     5.86835 eV ==== 

    |psi|^2 = 0.000
==== e(  27) =     6.09253 eV ==== 
     psi = 0.009*[#   7]+0.009*[#  16]
    |psi|^2 = 0.018
==== e(  28) =     6.10998 eV ==== 

    |psi|^2 = 0.000
==== e(  29) =     7.20142 eV ==== 
     psi = 0.002*[#   7]+0.002*[#  16]
    |psi|^2 = 0.005
==== e(  30) =     7.73761 eV ==== 

    |psi|^2 = 0.000
==== e(  31) =     8.52246 eV ==== 

    |psi|^2 = 0.002
==== e(  32) =     8.79404 eV ==== 

    |psi|^2 = 0.000
==== e(  33) =     9.19626 eV ==== 

    |psi|^2 = 0.001
==== e(  34) =     9.32146 eV ==== 

    |psi|^2 = 0.000
==== e(  35) =     9.37976 eV ==== 

    |psi|^2 = 0.000
==== e(  36) =     9.67417 eV ==== 

    |psi|^2 = 0.001
==== e(  37) =     9.82884 eV ==== 

    |psi|^2 = 0.001
==== e(  38) =     9.98755 eV ==== 

    |psi|^2 = 0.000
==== e(  39) =    10.58984 eV ==== 

    |psi|^2 = 0.001
==== e(  40) =    10.63321 eV ==== 

    |psi|^2 = 0.000
==== e(  41) =    10.64710 eV ==== 

    |psi|^2 = 0.000
==== e(  42) =    10.73357 eV ==== 

    |psi|^2 = 0.000
==== e(  43) =    10.83484 eV ==== 

    |psi|^2 = 0.001
==== e(  44) =    10.94556 eV ==== 

    |psi|^2 = 0.002
==== e(  45) =    11.28369 eV ==== 

    |psi|^2 = 0.001
==== e(  46) =    11.38699 eV ==== 

    |psi|^2 = 0.001
==== e(  47) =    11.81959 eV ==== 

    |psi|^2 = 0.002
==== e(  48) =    11.92129 eV ==== 
     psi = 0.001*[#   7]+0.001*[#  16]
    |psi|^2 = 0.002
==== e(  49) =    11.99919 eV ==== 

    |psi|^2 = 0.000
==== e(  50) =    12.02864 eV ==== 

    |psi|^2 = 0.000
==== e(  51) =    12.18618 eV ==== 

    |psi|^2 = 0.000
==== e(  52) =    12.19189 eV ==== 

    |psi|^2 = 0.000
==== e(  53) =    12.20231 eV ==== 

    |psi|^2 = 0.000
==== e(  54) =    12.26363 eV ==== 

    |psi|^2 = 0.000
==== e(  55) =    12.35248 eV ==== 

    |psi|^2 = 0.000
==== e(  56) =    12.86933 eV ==== 

    |psi|^2 = 0.000
==== e(  57) =    13.00133 eV ==== 

    |psi|^2 = 0.000
==== e(  58) =    13.04262 eV ==== 

    |psi|^2 = 0.000
==== e(  59) =    13.37411 eV ==== 

    |psi|^2 = 0.000
==== e(  60) =    13.52170 eV ==== 

    |psi|^2 = 0.000

 k =   0.0000000000  0.1154700538  0.0000000000
==== e(   1) =   -24.12572 eV ==== 
     psi = 0.255*[#   1]+0.255*[#  10]+0.122*[#   4]+0.122*[#   5]+0.122*[#  13]
          +0.122*[#  14]+0.001*[#   6]+0.001*[#  15]
    |psi|^2 = 1.000
==== e(   2) =   -24.12007 eV ==== 
     psi = 0.249*[#   4]+0.249*[#   5]+0.249*[#  13]+0.249*[#  14]+0.001*[#   8]
          +0.001*[#   9]+0.001*[#  17]+0.001*[#  18]
    |psi|^2 = 1.000
==== e(   3) =   -24.10480 eV ==== 
     psi = 0.233*[#   1]+0.233*[#  10]+0.132*[#   4]+0.132*[#   5]+0.132*[#  13]
          +0.132*[#  14]
    |psi|^2 = 1.000
==== e(   4) =   -23.99775 eV ==== 
     psi = 0.250*[#   2]+0.250*[#   3]+0.250*[#  11]+0.250*[#  12]
    |psi|^2 = 1.000
==== e(   5) =   -23.99175 eV ==== 
     psi = 0.250*[#   2]+0.250*[#   3]+0.250*[#  11]+0.250*[#  12]
    |psi|^2 = 1.000
==== e(   6) =   -23.81269 eV ==== 
     psi = 0.236*[#   4]+0.236*[#   5]+0.236*[#  13]+0.236*[#  14]+0.025*[#   1]
          +0.025*[#  10]+0.001*[#   8]+0.001*[#   9]+0.001*[#  17]+0.001*[#  18]
          
    |psi|^2 = 1.000
==== e(   7) =   -23.80803 eV ==== 
     psi = 0.249*[#   4]+0.249*[#   5]+0.249*[#  13]+0.249*[#  14]+0.001*[#   8]
          +0.001*[#   9]+0.001*[#  17]+0.001*[#  18]
    |psi|^2 = 1.000
==== e(   8) =   -23.76948 eV ==== 
     psi = 0.250*[#   2]+0.250*[#   3]+0.250*[#  11]+0.250*[#  12]
    |psi|^2 = 1.000
==== e(   9) =   -23.76292 eV ==== 
     psi = 0.250*[#   2]+0.250*[#   3]+0.250*[#  11]+0.250*[#  12]
    |psi|^2 = 1.000
==== e(  10) =   -23.70640 eV ==== 
     psi = 0.484*[#   1]+0.484*[#  10]+0.008*[#   4]+0.008*[#   5]+0.008*[#  13]
          +0.008*[#  14]
    |psi|^2 = 1.000
==== e(  11) =   -12.12061 eV ==== 
     psi = 0.484*[#   6]+0.484*[#  15]+0.006*[#   8]+0.006*[#   9]+0.006*[#  17]
          +0.006*[#  18]+0.002*[#   1]+0.002*[#  10]
    |psi|^2 = 0.997
==== e(  12) =    -4.94640 eV ==== 
     psi = 0.280*[#   6]+0.280*[#  15]+0.108*[#   8]+0.108*[#   9]+0.108*[#  17]
          +0.108*[#  18]
    |psi|^2 = 0.996
==== e(  13) =    -4.20343 eV ==== 
     psi = 0.498*[#   7]+0.498*[#  16]
    |psi|^2 = 0.997
==== e(  14) =    -3.52919 eV ==== 
     psi = 0.248*[#   8]+0.248*[#   9]+0.248*[#  17]+0.248*[#  18]+0.001*[#   4]
          +0.001*[#   5]+0.001*[#  13]+0.001*[#  14]
    |psi|^2 = 0.996
==== e(  15) =    -2.23333 eV ==== 
     psi = 0.212*[#   6]+0.212*[#  15]+0.140*[#   8]+0.140*[#   9]+0.140*[#  17]
          +0.140*[#  18]
    |psi|^2 = 0.987
==== e(  16) =     0.62591 eV ==== 
     psi = 0.214*[#   8]+0.214*[#   9]+0.214*[#  17]+0.214*[#  18]+0.013*[#   6]
          +0.013*[#  15]+0.001*[#   4]+0.001*[#   5]+0.001*[#  13]+0.001*[#  14]
          
    |psi|^2 = 0.886
==== e(  17) =     1.01676 eV ==== 
     psi = 0.234*[#   8]+0.234*[#   9]+0.234*[#  17]+0.234*[#  18]+0.001*[#   4]
          +0.001*[#   5]+0.001*[#  13]+0.001*[#  14]
    |psi|^2 = 0.939
==== e(  18) =     1.12572 eV ==== 
     psi = 0.007*[#   8]+0.007*[#   9]+0.007*[#  17]+0.007*[#  18]
    |psi|^2 = 0.030
==== e(  19) =     1.94802 eV ==== 
     psi = 0.476*[#   7]+0.476*[#  16]
    |psi|^2 = 0.953
==== e(  20) =     2.08355 eV ==== 
     psi = 0.002*[#   7]+0.002*[#  16]
    |psi|^2 = 0.004
==== e(  21) =     2.37528 eV ==== 

    |psi|^2 = 0.000
==== e(  22) =     3.51271 eV ==== 

    |psi|^2 = 0.000
==== e(  23) =     3.74799 eV ==== 

    |psi|^2 = 0.001
==== e(  24) =     4.43975 eV ==== 
     psi = 0.005*[#   8]+0.005*[#   9]+0.005*[#  17]+0.005*[#  18]
    |psi|^2 = 0.021
==== e(  25) =     5.69259 eV ==== 
     psi = 0.003*[#   7]+0.003*[#  16]
    |psi|^2 = 0.006
==== e(  26) =     5.78889 eV ==== 

    |psi|^2 = 0.000
==== e(  27) =     6.07954 eV ==== 
     psi = 0.009*[#   7]+0.009*[#  16]
    |psi|^2 = 0.018
==== e(  28) =     6.13673 eV ==== 

    |psi|^2 = 0.000
==== e(  29) =     7.23967 eV ==== 
     psi = 0.004*[#   7]+0.004*[#  16]
    |psi|^2 = 0.008
==== e(  30) =     7.86676 eV ==== 

    |psi|^2 = 0.000
==== e(  31) =     8.27217 eV ==== 

    |psi|^2 = 0.002
==== e(  32) =     8.91738 eV ==== 

    |psi|^2 = 0.000
==== e(  33) =     9.08558 eV ==== 

    |psi|^2 = 0.001
==== e(  34) =     9.32698 eV ==== 

    |psi|^2 = 0.000
==== e(  35) =     9.46245 eV ==== 

    |psi|^2 = 0.001
==== e(  36) =     9.52918 eV ==== 

    |psi|^2 = 0.001
==== e(  37) =     9.62013 eV ==== 

    |psi|^2 = 0.001
==== e(  38) =     9.75170 eV ==== 

    |psi|^2 = 0.001
==== e(  39) =    10.45693 eV ==== 

    |psi|^2 = 0.001
==== e(  40) =    10.51211 eV ==== 

    |psi|^2 = 0.000
==== e(  41) =    10.55010 eV ==== 

    |psi|^2 = 0.000
==== e(  42) =    10.61007 eV ==== 

    |psi|^2 = 0.000
==== e(  43) =    10.88752 eV ==== 

    |psi|^2 = 0.000
==== e(  44) =    11.03109 eV ==== 

    |psi|^2 = 0.000
==== e(  45) =    11.06883 eV ==== 

    |psi|^2 = 0.002
==== e(  46) =    11.25844 eV ==== 

    |psi|^2 = 0.001
==== e(  47) =    11.85219 eV ==== 

    |psi|^2 = 0.002
==== e(  48) =    11.90882 eV ==== 

    |psi|^2 = 0.001
==== e(  49) =    11.94009 eV ==== 

    |psi|^2 = 0.000
==== e(  50) =    11.97474 eV ==== 

    |psi|^2 = 0.001
==== e(  51) =    12.21972 eV ==== 

    |psi|^2 = 0.001
==== e(  52) =    12.32240 eV ==== 

    |psi|^2 = 0.001
==== e(  53) =    12.33023 eV ==== 

    |psi|^2 = 0.000
==== e(  54) =    12.42685 eV ==== 

    |psi|^2 = 0.000
==== e(  55) =    12.50757 eV ==== 

    |psi|^2 = 0.000
==== e(  56) =    13.03468 eV ==== 

    |psi|^2 = 0.000
==== e(  57) =    13.19056 eV ==== 

    |psi|^2 = 0.001
==== e(  58) =    13.27627 eV ==== 

    |psi|^2 = 0.000
==== e(  59) =    13.38410 eV ==== 

    |psi|^2 = 0.000
==== e(  60) =    13.42462 eV ==== 

    |psi|^2 = 0.001

 k =   0.0000000000  0.1347150628  0.0000000000
==== e(   1) =   -24.13224 eV ==== 
     psi = 0.205*[#   1]+0.205*[#  10]+0.147*[#   4]+0.147*[#   5]+0.147*[#  13]
          +0.147*[#  14]
    |psi|^2 = 1.000
==== e(   2) =   -24.12739 eV ==== 
     psi = 0.249*[#   4]+0.249*[#   5]+0.249*[#  13]+0.249*[#  14]+0.001*[#   8]
          +0.001*[#   9]+0.001*[#  17]+0.001*[#  18]
    |psi|^2 = 1.000
==== e(   3) =   -24.10484 eV ==== 
     psi = 0.280*[#   1]+0.280*[#  10]+0.109*[#   4]+0.109*[#   5]+0.109*[#  13]
          +0.109*[#  14]
    |psi|^2 = 1.000
==== e(   4) =   -23.99848 eV ==== 
     psi = 0.250*[#   2]+0.250*[#   3]+0.250*[#  11]+0.250*[#  12]
    |psi|^2 = 1.000
==== e(   5) =   -23.99038 eV ==== 
     psi = 0.250*[#   2]+0.250*[#   3]+0.250*[#  11]+0.250*[#  12]
    |psi|^2 = 1.000
==== e(   6) =   -23.80624 eV ==== 
     psi = 0.231*[#   4]+0.231*[#   5]+0.231*[#  13]+0.231*[#  14]+0.036*[#   1]
          +0.036*[#  10]+0.001*[#   8]+0.001*[#   9]+0.001*[#  17]+0.001*[#  18]
          
    |psi|^2 = 1.000
==== e(   7) =   -23.79983 eV ==== 
     psi = 0.249*[#   4]+0.249*[#   5]+0.249*[#  13]+0.249*[#  14]+0.001*[#   8]
          +0.001*[#   9]+0.001*[#  17]+0.001*[#  18]
    |psi|^2 = 1.000
==== e(   8) =   -23.77105 eV ==== 
     psi = 0.250*[#   2]+0.250*[#   3]+0.250*[#  11]+0.250*[#  12]
    |psi|^2 = 1.000
==== e(   9) =   -23.76220 eV ==== 
     psi = 0.250*[#   2]+0.250*[#   3]+0.250*[#  11]+0.250*[#  12]
    |psi|^2 = 1.000
==== e(  10) =   -23.70574 eV ==== 
     psi = 0.477*[#   1]+0.477*[#  10]+0.011*[#   4]+0.011*[#   5]+0.011*[#  13]
          +0.011*[#  14]
    |psi|^2 = 1.000
==== e(  11) =   -12.08995 eV ==== 
     psi = 0.480*[#   6]+0.480*[#  15]+0.008*[#   8]+0.008*[#   9]+0.008*[#  17]
          +0.008*[#  18]+0.002*[#   1]+0.002*[#  10]
    |psi|^2 = 0.997
==== e(  12) =    -5.17794 eV ==== 
     psi = 0.276*[#   6]+0.276*[#  15]+0.110*[#   8]+0.110*[#   9]+0.110*[#  17]
          +0.110*[#  18]
    |psi|^2 = 0.996
==== e(  13) =    -4.17180 eV ==== 
     psi = 0.498*[#   7]+0.498*[#  16]
    |psi|^2 = 0.997
==== e(  14) =    -3.58574 eV ==== 
     psi = 0.248*[#   8]+0.248*[#   9]+0.248*[#  17]+0.248*[#  18]+0.001*[#   4]
          +0.001*[#   5]+0.001*[#  13]+0.001*[#  14]
    |psi|^2 = 0.996
==== e(  15) =    -2.06309 eV ==== 
     psi = 0.214*[#   6]+0.214*[#  15]+0.139*[#   8]+0.139*[#   9]+0.139*[#  17]
          +0.139*[#  18]
    |psi|^2 = 0.986
==== e(  16) =     0.64371 eV ==== 
     psi = 0.208*[#   8]+0.208*[#   9]+0.208*[#  17]+0.208*[#  18]+0.018*[#   6]
          +0.018*[#  15]+0.001*[#   4]+0.001*[#   5]+0.001*[#  13]+0.001*[#  14]
          
    |psi|^2 = 0.875
==== e(  17) =     1.13536 eV ==== 
     psi = 0.233*[#   8]+0.233*[#   9]+0.233*[#  17]+0.233*[#  18]+0.001*[#   4]
          +0.001*[#   5]+0.001*[#  13]+0.001*[#  14]
    |psi|^2 = 0.936
==== e(  18) =     1.16348 eV ==== 
     psi = 0.008*[#   8]+0.008*[#   9]+0.008*[#  17]+0.008*[#  18]+0.001*[#   6]
          +0.001*[#  15]
    |psi|^2 = 0.033
==== e(  19) =     1.82606 eV ==== 
     psi = 0.474*[#   7]+0.474*[#  16]
    |psi|^2 = 0.948
==== e(  20) =     2.11504 eV ==== 
     psi = 0.001*[#   7]+0.001*[#  16]
    |psi|^2 = 0.002
==== e(  21) =     2.40860 eV ==== 

    |psi|^2 = 0.000
==== e(  22) =     3.54272 eV ==== 

    |psi|^2 = 0.000
==== e(  23) =     3.78567 eV ==== 

    |psi|^2 = 0.001
==== e(  24) =     4.59766 eV ==== 
     psi = 0.006*[#   8]+0.006*[#   9]+0.006*[#  17]+0.006*[#  18]
    |psi|^2 = 0.026
==== e(  25) =     5.64119 eV ==== 
     psi = 0.005*[#   7]+0.005*[#  16]
    |psi|^2 = 0.010
==== e(  26) =     5.70715 eV ==== 

    |psi|^2 = 0.000
==== e(  27) =     6.07601 eV ==== 
     psi = 0.008*[#   7]+0.008*[#  16]
    |psi|^2 = 0.016
==== e(  28) =     6.16829 eV ==== 

    |psi|^2 = 0.000
==== e(  29) =     7.31408 eV ==== 
     psi = 0.006*[#   7]+0.006*[#  16]
    |psi|^2 = 0.013
==== e(  30) =     8.00709 eV ==== 

    |psi|^2 = 0.000
==== e(  31) =     8.02313 eV ==== 

    |psi|^2 = 0.003
==== e(  32) =     8.97609 eV ==== 

    |psi|^2 = 0.001
==== e(  33) =     9.00264 eV ==== 

    |psi|^2 = 0.000
==== e(  34) =     9.27757 eV ==== 

    |psi|^2 = 0.001
==== e(  35) =     9.28630 eV ==== 

    |psi|^2 = 0.001
==== e(  36) =     9.38767 eV ==== 

    |psi|^2 = 0.000
==== e(  37) =     9.57987 eV ==== 

    |psi|^2 = 0.001
==== e(  38) =     9.72457 eV ==== 

    |psi|^2 = 0.000
==== e(  39) =    10.32596 eV ==== 

    |psi|^2 = 0.001
==== e(  40) =    10.39601 eV ==== 

    |psi|^2 = 0.000
==== e(  41) =    10.44030 eV ==== 

    |psi|^2 = 0.000
==== e(  42) =    10.48378 eV ==== 

    |psi|^2 = 0.000
==== e(  43) =    10.74298 eV ==== 

    |psi|^2 = 0.000
==== e(  44) =    10.79056 eV ==== 

    |psi|^2 = 0.000
==== e(  45) =    11.20416 eV ==== 

    |psi|^2 = 0.002
==== e(  46) =    11.33734 eV ==== 

    |psi|^2 = 0.001
==== e(  47) =    11.74715 eV ==== 

    |psi|^2 = 0.001
==== e(  48) =    11.82529 eV ==== 

    |psi|^2 = 0.001
==== e(  49) =    11.82974 eV ==== 

    |psi|^2 = 0.000
==== e(  50) =    11.92342 eV ==== 

    |psi|^2 = 0.001
==== e(  51) =    12.42812 eV ==== 

    |psi|^2 = 0.001
==== e(  52) =    12.48693 eV ==== 

    |psi|^2 = 0.001
==== e(  53) =    12.50601 eV ==== 

    |psi|^2 = 0.000
==== e(  54) =    12.60580 eV ==== 

    |psi|^2 = 0.000
==== e(  55) =    12.70458 eV ==== 

    |psi|^2 = 0.001
==== e(  56) =    12.99860 eV ==== 

    |psi|^2 = 0.000
==== e(  57) =    13.10675 eV ==== 

    |psi|^2 = 0.000
==== e(  58) =    13.22392 eV ==== 

    |psi|^2 = 0.001
==== e(  59) =    13.44523 eV ==== 

    |psi|^2 = 0.001
==== e(  60) =    13.53567 eV ==== 

    |psi|^2 = 0.001

 k =   0.0000000000  0.1539600718  0.0000000000
==== e(   1) =   -24.13956 eV ==== 
     psi = 0.173*[#   1]+0.173*[#  10]+0.163*[#   4]+0.163*[#   5]+0.163*[#  13]
          +0.163*[#  14]
    |psi|^2 = 1.000
==== e(   2) =   -24.13520 eV ==== 
     psi = 0.249*[#   4]+0.249*[#   5]+0.249*[#  13]+0.249*[#  14]+0.001*[#   8]
          +0.001*[#   9]+0.001*[#  17]+0.001*[#  18]
    |psi|^2 = 1.000
==== e(   3) =   -24.10452 eV ==== 
     psi = 0.310*[#   1]+0.310*[#  10]+0.094*[#   4]+0.094*[#   5]+0.094*[#  13]
          +0.094*[#  14]
    |psi|^2 = 1.000
==== e(   4) =   -23.99929 eV ==== 
     psi = 0.250*[#   2]+0.250*[#   3]+0.250*[#  11]+0.250*[#  12]
    |psi|^2 = 1.000
==== e(   5) =   -23.98882 eV ==== 
     psi = 0.250*[#   2]+0.250*[#   3]+0.250*[#  11]+0.250*[#  12]
    |psi|^2 = 1.000
==== e(   6) =   -23.79954 eV ==== 
     psi = 0.225*[#   4]+0.225*[#   5]+0.225*[#  13]+0.225*[#  14]+0.048*[#   1]
          +0.048*[#  10]+0.001*[#   8]+0.001*[#   9]+0.001*[#  17]+0.001*[#  18]
          
    |psi|^2 = 1.000
==== e(   7) =   -23.79104 eV ==== 
     psi = 0.249*[#   4]+0.249*[#   5]+0.249*[#  13]+0.249*[#  14]+0.001*[#   8]
          +0.001*[#   9]+0.001*[#  17]+0.001*[#  18]
    |psi|^2 = 1.000
==== e(   8) =   -23.77284 eV ==== 
     psi = 0.250*[#   2]+0.250*[#   3]+0.250*[#  11]+0.250*[#  12]
    |psi|^2 = 1.000
==== e(   9) =   -23.76139 eV ==== 
     psi = 0.250*[#   2]+0.250*[#   3]+0.250*[#  11]+0.250*[#  12]
    |psi|^2 = 1.000
==== e(  10) =   -23.70483 eV ==== 
     psi = 0.467*[#   1]+0.467*[#  10]+0.016*[#   4]+0.016*[#   5]+0.016*[#  13]
          +0.016*[#  14]
    |psi|^2 = 1.000
==== e(  11) =   -12.05465 eV ==== 
     psi = 0.475*[#   6]+0.475*[#  15]+0.011*[#   8]+0.011*[#   9]+0.011*[#  17]
          +0.011*[#  18]+0.002*[#   1]+0.002*[#  10]
    |psi|^2 = 0.997
==== e(  12) =    -5.40798 eV ==== 
     psi = 0.273*[#   6]+0.273*[#  15]+0.112*[#   8]+0.112*[#   9]+0.112*[#  17]
          +0.112*[#  18]
    |psi|^2 = 0.997
==== e(  13) =    -4.13543 eV ==== 
     psi = 0.498*[#   7]+0.498*[#  16]
    |psi|^2 = 0.996
==== e(  14) =    -3.64674 eV ==== 
     psi = 0.248*[#   8]+0.248*[#   9]+0.248*[#  17]+0.248*[#  18]+0.001*[#   4]
          +0.001*[#   5]+0.001*[#  13]+0.001*[#  14]
    |psi|^2 = 0.997
==== e(  15) =    -1.91288 eV ==== 
     psi = 0.214*[#   6]+0.214*[#  15]+0.139*[#   8]+0.139*[#   9]+0.139*[#  17]
          +0.139*[#  18]
    |psi|^2 = 0.984
==== e(  16) =     0.68103 eV ==== 
     psi = 0.202*[#   8]+0.202*[#   9]+0.202*[#  17]+0.202*[#  18]+0.025*[#   6]
          +0.025*[#  15]
    |psi|^2 = 0.863
==== e(  17) =     1.20615 eV ==== 
     psi = 0.008*[#   8]+0.008*[#   9]+0.008*[#  17]+0.008*[#  18]+0.002*[#   6]
          +0.002*[#  15]
    |psi|^2 = 0.037
==== e(  18) =     1.26787 eV ==== 
     psi = 0.232*[#   8]+0.232*[#   9]+0.232*[#  17]+0.232*[#  18]+0.001*[#   4]
          +0.001*[#   5]+0.001*[#  13]+0.001*[#  14]
    |psi|^2 = 0.932
==== e(  19) =     1.69334 eV ==== 
     psi = 0.471*[#   7]+0.471*[#  16]
    |psi|^2 = 0.942
==== e(  20) =     2.15138 eV ==== 
     psi = 0.001*[#   7]+0.001*[#  16]
    |psi|^2 = 0.002
==== e(  21) =     2.44694 eV ==== 

    |psi|^2 = 0.000
==== e(  22) =     3.57708 eV ==== 

    |psi|^2 = 0.000
==== e(  23) =     3.82711 eV ==== 

    |psi|^2 = 0.001
==== e(  24) =     4.77437 eV ==== 
     psi = 0.007*[#   8]+0.007*[#   9]+0.007*[#  17]+0.007*[#  18]
    |psi|^2 = 0.030
==== e(  25) =     5.56845 eV ==== 
     psi = 0.008*[#   7]+0.008*[#  16]
    |psi|^2 = 0.016
==== e(  26) =     5.62493 eV ==== 

    |psi|^2 = 0.000
==== e(  27) =     6.08654 eV ==== 
     psi = 0.007*[#   7]+0.007*[#  16]
    |psi|^2 = 0.013
==== e(  28) =     6.20463 eV ==== 

    |psi|^2 = 0.000
==== e(  29) =     7.41823 eV ==== 
     psi = 0.008*[#   7]+0.008*[#  16]
    |psi|^2 = 0.017
==== e(  30) =     7.77653 eV ==== 

    |psi|^2 = 0.003
==== e(  31) =     8.15673 eV ==== 

    |psi|^2 = 0.000
==== e(  32) =     8.86902 eV ==== 

    |psi|^2 = 0.001
==== e(  33) =     8.97239 eV ==== 

    |psi|^2 = 0.000
==== e(  34) =     9.08427 eV ==== 

    |psi|^2 = 0.001
==== e(  35) =     9.14033 eV ==== 

    |psi|^2 = 0.001
==== e(  36) =     9.29718 eV ==== 

    |psi|^2 = 0.001
==== e(  37) =     9.51458 eV ==== 

    |psi|^2 = 0.001
==== e(  38) =     9.91663 eV ==== 

    |psi|^2 = 0.000
==== e(  39) =    10.19652 eV ==== 

    |psi|^2 = 0.002
==== e(  40) =    10.28507 eV ==== 

    |psi|^2 = 0.000
==== e(  41) =    10.33069 eV ==== 

    |psi|^2 = 0.000
==== e(  42) =    10.34944 eV ==== 

    |psi|^2 = 0.000
==== e(  43) =    10.53727 eV ==== 

    |psi|^2 = 0.000
==== e(  44) =    10.57630 eV ==== 

    |psi|^2 = 0.000
==== e(  45) =    11.31552 eV ==== 

    |psi|^2 = 0.001
==== e(  46) =    11.48968 eV ==== 

    |psi|^2 = 0.001
==== e(  47) =    11.63747 eV ==== 

    |psi|^2 = 0.001
==== e(  48) =    11.72070 eV ==== 

    |psi|^2 = 0.000
==== e(  49) =    11.77877 eV ==== 

    |psi|^2 = 0.002
==== e(  50) =    11.82799 eV ==== 

    |psi|^2 = 0.000
==== e(  51) =    12.65272 eV ==== 

    |psi|^2 = 0.001
==== e(  52) =    12.65565 eV ==== 

    |psi|^2 = 0.001
==== e(  53) =    12.69031 eV ==== 

    |psi|^2 = 0.000
==== e(  54) =    12.79174 eV ==== 

    |psi|^2 = 0.000
==== e(  55) =    12.83691 eV ==== 

    |psi|^2 = 0.000
==== e(  56) =    12.89187 eV ==== 

    |psi|^2 = 0.002
==== e(  57) =    12.92877 eV ==== 

    |psi|^2 = 0.001
==== e(  58) =    13.19229 eV ==== 

    |psi|^2 = 0.000
==== e(  59) =    13.47791 eV ==== 

    |psi|^2 = 0.001
==== e(  60) =    13.80500 eV ==== 
     psi = 0.003*[#   8]+0.003*[#   9]+0.003*[#  17]+0.003*[#  18]
    |psi|^2 = 0.013

 k =   0.0000000000  0.1732050808  0.0000000000
==== e(   1) =   -24.14741 eV ==== 
     psi = 0.173*[#   4]+0.173*[#   5]+0.173*[#  13]+0.173*[#  14]+0.151*[#   1]
          +0.151*[#  10]
    |psi|^2 = 1.000
==== e(   2) =   -24.14336 eV ==== 
     psi = 0.249*[#   4]+0.249*[#   5]+0.249*[#  13]+0.249*[#  14]+0.001*[#   8]
          +0.001*[#   9]+0.001*[#  17]+0.001*[#  18]
    |psi|^2 = 1.000
==== e(   3) =   -24.10396 eV ==== 
     psi = 0.328*[#   1]+0.328*[#  10]+0.085*[#   4]+0.085*[#   5]+0.085*[#  13]
          +0.085*[#  14]
    |psi|^2 = 1.000
==== e(   4) =   -24.00018 eV ==== 
     psi = 0.250*[#   2]+0.250*[#   3]+0.250*[#  11]+0.250*[#  12]
    |psi|^2 = 1.000
==== e(   5) =   -23.98708 eV ==== 
     psi = 0.250*[#   2]+0.250*[#   3]+0.250*[#  11]+0.250*[#  12]
    |psi|^2 = 1.000
==== e(   6) =   -23.79281 eV ==== 
     psi = 0.217*[#   4]+0.217*[#   5]+0.217*[#  13]+0.217*[#  14]+0.065*[#   1]
          +0.065*[#  10]+0.001*[#   8]+0.001*[#   9]+0.001*[#  17]+0.001*[#  18]
          
    |psi|^2 = 1.000
==== e(   7) =   -23.78181 eV ==== 
     psi = 0.249*[#   4]+0.249*[#   5]+0.249*[#  13]+0.249*[#  14]+0.001*[#   8]
          +0.001*[#   9]+0.001*[#  17]+0.001*[#  18]
    |psi|^2 = 1.000
==== e(   8) =   -23.77483 eV ==== 
     psi = 0.250*[#   2]+0.250*[#   3]+0.250*[#  11]+0.250*[#  12]
    |psi|^2 = 1.000
==== e(   9) =   -23.76051 eV ==== 
     psi = 0.250*[#   2]+0.250*[#   3]+0.250*[#  11]+0.250*[#  12]
    |psi|^2 = 1.000
==== e(  10) =   -23.70359 eV ==== 
     psi = 0.454*[#   1]+0.454*[#  10]+0.023*[#   4]+0.023*[#   5]+0.023*[#  13]
          +0.023*[#  14]
    |psi|^2 = 1.000
==== e(  11) =   -12.01472 eV ==== 
     psi = 0.470*[#   6]+0.470*[#  15]+0.013*[#   8]+0.013*[#   9]+0.013*[#  17]
          +0.013*[#  18]+0.002*[#   1]+0.002*[#  10]
    |psi|^2 = 0.997
==== e(  12) =    -5.63602 eV ==== 
     psi = 0.272*[#   6]+0.272*[#  15]+0.113*[#   8]+0.113*[#   9]+0.113*[#  17]
          +0.113*[#  18]
    |psi|^2 = 0.997
==== e(  13) =    -4.09437 eV ==== 
     psi = 0.498*[#   7]+0.498*[#  16]
    |psi|^2 = 0.996
==== e(  14) =    -3.71102 eV ==== 
     psi = 0.248*[#   8]+0.248*[#   9]+0.248*[#  17]+0.248*[#  18]+0.001*[#   4]
          +0.001*[#   5]+0.001*[#  13]+0.001*[#  14]
    |psi|^2 = 0.997
==== e(  15) =    -1.78589 eV ==== 
     psi = 0.211*[#   6]+0.211*[#  15]+0.139*[#   8]+0.139*[#   9]+0.139*[#  17]
          +0.139*[#  18]
    |psi|^2 = 0.981
==== e(  16) =     0.74186 eV ==== 
     psi = 0.195*[#   8]+0.195*[#   9]+0.195*[#  17]+0.195*[#  18]+0.032*[#   6]
          +0.032*[#  15]
    |psi|^2 = 0.848
==== e(  17) =     1.25406 eV ==== 
     psi = 0.010*[#   8]+0.010*[#   9]+0.010*[#  17]+0.010*[#  18]+0.002*[#   6]
          +0.002*[#  15]
    |psi|^2 = 0.043
==== e(  18) =     1.41305 eV ==== 
     psi = 0.231*[#   8]+0.231*[#   9]+0.231*[#  17]+0.231*[#  18]+0.001*[#   4]
          +0.001*[#   5]+0.001*[#  13]+0.001*[#  14]
    |psi|^2 = 0.928
==== e(  19) =     1.55191 eV ==== 
     psi = 0.468*[#   7]+0.468*[#  16]
    |psi|^2 = 0.937
==== e(  20) =     2.19250 eV ==== 
     psi = 0.001*[#   7]+0.001*[#  16]
    |psi|^2 = 0.002
==== e(  21) =     2.49029 eV ==== 

    |psi|^2 = 0.000
==== e(  22) =     3.61562 eV ==== 

    |psi|^2 = 0.001
==== e(  23) =     3.87255 eV ==== 

    |psi|^2 = 0.000
==== e(  24) =     4.96752 eV ==== 
     psi = 0.008*[#   8]+0.008*[#   9]+0.008*[#  17]+0.008*[#  18]
    |psi|^2 = 0.035
==== e(  25) =     5.48082 eV ==== 
     psi = 0.010*[#   7]+0.010*[#  16]
    |psi|^2 = 0.020
==== e(  26) =     5.54349 eV ==== 

    |psi|^2 = 0.000
==== e(  27) =     6.11024 eV ==== 
     psi = 0.005*[#   7]+0.005*[#  16]
    |psi|^2 = 0.010
==== e(  28) =     6.24565 eV ==== 

    |psi|^2 = 0.001
==== e(  29) =     7.53336 eV ==== 

    |psi|^2 = 0.003
==== e(  30) =     7.54541 eV ==== 
     psi = 0.010*[#   7]+0.010*[#  16]
    |psi|^2 = 0.020
==== e(  31) =     8.31427 eV ==== 

    |psi|^2 = 0.000
==== e(  32) =     8.75139 eV ==== 

    |psi|^2 = 0.000
==== e(  33) =     8.76517 eV ==== 

    |psi|^2 = 0.001
==== e(  34) =     8.84564 eV ==== 

    |psi|^2 = 0.000
==== e(  35) =     9.17318 eV ==== 

    |psi|^2 = 0.000
==== e(  36) =     9.19536 eV ==== 

    |psi|^2 = 0.001
==== e(  37) =     9.51931 eV ==== 

    |psi|^2 = 0.000
==== e(  38) =     9.98575 eV ==== 

    |psi|^2 = 0.001
==== e(  39) =    10.15193 eV ==== 

    |psi|^2 = 0.001
==== e(  40) =    10.17943 eV ==== 

    |psi|^2 = 0.000
==== e(  41) =    10.18457 eV ==== 

    |psi|^2 = 0.000
==== e(  42) =    10.22421 eV ==== 

    |psi|^2 = 0.000
==== e(  43) =    10.35638 eV ==== 

    |psi|^2 = 0.000
==== e(  44) =    10.44188 eV ==== 

    |psi|^2 = 0.000
==== e(  45) =    11.35734 eV ==== 

    |psi|^2 = 0.001
==== e(  46) =    11.52933 eV ==== 

    |psi|^2 = 0.001
==== e(  47) =    11.61555 eV ==== 

    |psi|^2 = 0.000
==== e(  48) =    11.62429 eV ==== 

    |psi|^2 = 0.001
==== e(  49) =    11.75488 eV ==== 

    |psi|^2 = 0.000
==== e(  50) =    11.81225 eV ==== 

    |psi|^2 = 0.003
==== e(  51) =    12.57540 eV ==== 

    |psi|^2 = 0.001
==== e(  52) =    12.62074 eV ==== 

    |psi|^2 = 0.000
==== e(  53) =    12.87190 eV ==== 

    |psi|^2 = 0.001
==== e(  54) =    12.88042 eV ==== 

    |psi|^2 = 0.000
==== e(  55) =    12.94730 eV ==== 

    |psi|^2 = 0.001
==== e(  56) =    12.98198 eV ==== 

    |psi|^2 = 0.001
==== e(  57) =    13.15039 eV ==== 
     psi = 0.001*[#   8]+0.001*[#   9]+0.001*[#  17]+0.001*[#  18]
    |psi|^2 = 0.005
==== e(  58) =    13.21206 eV ==== 

    |psi|^2 = 0.000
==== e(  59) =    13.51293 eV ==== 
     psi = 0.004*[#   8]+0.004*[#   9]+0.004*[#  17]+0.004*[#  18]
    |psi|^2 = 0.016
==== e(  60) =    13.52041 eV ==== 

    |psi|^2 = 0.001

 k =   0.0000000000  0.1924500897  0.0000000000
==== e(   1) =   -24.15559 eV ==== 
     psi = 0.181*[#   4]+0.181*[#   5]+0.181*[#  13]+0.181*[#  14]+0.136*[#   1]
          +0.136*[#  10]
    |psi|^2 = 1.000
==== e(   2) =   -24.15171 eV ==== 
     psi = 0.249*[#   4]+0.249*[#   5]+0.249*[#  13]+0.249*[#  14]+0.001*[#   8]
          +0.001*[#   9]+0.001*[#  17]+0.001*[#  18]
    |psi|^2 = 1.000
==== e(   3) =   -24.10324 eV ==== 
     psi = 0.341*[#   1]+0.341*[#  10]+0.079*[#   4]+0.079*[#   5]+0.079*[#  13]
          +0.079*[#  14]+0.001*[#   6]+0.001*[#  15]
    |psi|^2 = 1.000
==== e(   4) =   -24.00112 eV ==== 
     psi = 0.250*[#   2]+0.250*[#   3]+0.250*[#  11]+0.250*[#  12]
    |psi|^2 = 1.000
==== e(   5) =   -23.98516 eV ==== 
     psi = 0.250*[#   2]+0.250*[#   3]+0.250*[#  11]+0.250*[#  12]
    |psi|^2 = 1.000
==== e(   6) =   -23.78627 eV ==== 
     psi = 0.207*[#   4]+0.207*[#   5]+0.207*[#  13]+0.207*[#  14]+0.085*[#   1]
          +0.085*[#  10]
    |psi|^2 = 1.000
==== e(   7) =   -23.77701 eV ==== 
     psi = 0.250*[#   2]+0.250*[#   3]+0.250*[#  11]+0.250*[#  12]
    |psi|^2 = 1.000
==== e(   8) =   -23.77229 eV ==== 
     psi = 0.249*[#   4]+0.249*[#   5]+0.249*[#  13]+0.249*[#  14]+0.001*[#   8]
          +0.001*[#   9]+0.001*[#  17]+0.001*[#  18]
    |psi|^2 = 1.000
==== e(   9) =   -23.75957 eV ==== 
     psi = 0.250*[#   2]+0.250*[#   3]+0.250*[#  11]+0.250*[#  12]
    |psi|^2 = 1.000
==== e(  10) =   -23.70194 eV ==== 
     psi = 0.436*[#   1]+0.436*[#  10]+0.031*[#   4]+0.031*[#   5]+0.031*[#  13]
          +0.031*[#  14]
    |psi|^2 = 1.000
==== e(  11) =   -11.97021 eV ==== 
     psi = 0.465*[#   6]+0.465*[#  15]+0.016*[#   8]+0.016*[#   9]+0.016*[#  17]
          +0.016*[#  18]+0.002*[#   1]+0.002*[#  10]
    |psi|^2 = 0.997
==== e(  12) =    -5.86165 eV ==== 
     psi = 0.270*[#   6]+0.270*[#  15]+0.113*[#   8]+0.113*[#   9]+0.113*[#  17]
          +0.113*[#  18]
    |psi|^2 = 0.997
==== e(  13) =    -4.04870 eV ==== 
     psi = 0.498*[#   7]+0.498*[#  16]
    |psi|^2 = 0.996
==== e(  14) =    -3.77747 eV ==== 
     psi = 0.248*[#   8]+0.248*[#   9]+0.248*[#  17]+0.248*[#  18]+0.001*[#   4]
          +0.001*[#   5]+0.001*[#  13]+0.001*[#  14]
    |psi|^2 = 0.997
==== e(  15) =    -1.68411 eV ==== 
     psi = 0.208*[#   6]+0.208*[#  15]+0.140*[#   8]+0.140*[#   9]+0.140*[#  17]
          +0.140*[#  18]
    |psi|^2 = 0.979
==== e(  16) =     0.82859 eV ==== 
     psi = 0.186*[#   8]+0.186*[#   9]+0.186*[#  17]+0.186*[#  18]+0.040*[#   6]
          +0.040*[#  15]
    |psi|^2 = 0.830
==== e(  17) =     1.30782 eV ==== 
     psi = 0.012*[#   8]+0.012*[#   9]+0.012*[#  17]+0.012*[#  18]+0.003*[#   6]
          +0.003*[#  15]
    |psi|^2 = 0.053
==== e(  18) =     1.40354 eV ==== 
     psi = 0.466*[#   7]+0.466*[#  16]
    |psi|^2 = 0.933
==== e(  19) =     1.56974 eV ==== 
     psi = 0.230*[#   8]+0.230*[#   9]+0.230*[#  17]+0.230*[#  18]+0.001*[#   4]
          +0.001*[#   5]+0.001*[#  13]+0.001*[#  14]
    |psi|^2 = 0.923
==== e(  20) =     2.23834 eV ==== 
     psi = 0.001*[#   7]+0.001*[#  16]
    |psi|^2 = 0.002
==== e(  21) =     2.53866 eV ==== 

    |psi|^2 = 0.000
==== e(  22) =     3.65815 eV ==== 

    |psi|^2 = 0.001
==== e(  23) =     3.92219 eV ==== 

    |psi|^2 = 0.000
==== e(  24) =     5.17475 eV ==== 
     psi = 0.009*[#   8]+0.009*[#   9]+0.009*[#  17]+0.009*[#  18]+0.001*[#   6]
          +0.001*[#  15]
    |psi|^2 = 0.039
==== e(  25) =     5.38527 eV ==== 
     psi = 0.012*[#   7]+0.012*[#  16]
    |psi|^2 = 0.024
==== e(  26) =     5.46372 eV ==== 

    |psi|^2 = 0.000
==== e(  27) =     6.14446 eV ==== 
     psi = 0.004*[#   7]+0.004*[#  16]
    |psi|^2 = 0.008
==== e(  28) =     6.29113 eV ==== 

    |psi|^2 = 0.001
==== e(  29) =     7.29462 eV ==== 

    |psi|^2 = 0.004
==== e(  30) =     7.68934 eV ==== 
     psi = 0.012*[#   7]+0.012*[#  16]
    |psi|^2 = 0.024
==== e(  31) =     8.47857 eV ==== 

    |psi|^2 = 0.000
==== e(  32) =     8.51137 eV ==== 

    |psi|^2 = 0.000
==== e(  33) =     8.60046 eV ==== 

    |psi|^2 = 0.000
==== e(  34) =     8.66500 eV ==== 

    |psi|^2 = 0.002
==== e(  35) =     9.08909 eV ==== 

    |psi|^2 = 0.001
==== e(  36) =     9.22349 eV ==== 

    |psi|^2 = 0.000
==== e(  37) =     9.54673 eV ==== 

    |psi|^2 = 0.000
==== e(  38) =     9.82374 eV ==== 

    |psi|^2 = 0.001
==== e(  39) =     9.98096 eV ==== 

    |psi|^2 = 0.001
==== e(  40) =    10.07931 eV ==== 

    |psi|^2 = 0.000
==== e(  41) =    10.12184 eV ==== 

    |psi|^2 = 0.000
==== e(  42) =    10.12659 eV ==== 

    |psi|^2 = 0.000
==== e(  43) =    10.22192 eV ==== 

    |psi|^2 = 0.000
==== e(  44) =    10.55070 eV ==== 

    |psi|^2 = 0.001
==== e(  45) =    11.32424 eV ==== 

    |psi|^2 = 0.000
==== e(  46) =    11.42463 eV ==== 

    |psi|^2 = 0.001
==== e(  47) =    11.51498 eV ==== 

    |psi|^2 = 0.000
==== e(  48) =    11.58925 eV ==== 

    |psi|^2 = 0.001
==== e(  49) =    11.83281 eV ==== 

    |psi|^2 = 0.001
==== e(  50) =    11.92867 eV ==== 
     psi = 0.001*[#   8]+0.001*[#   9]+0.001*[#  17]+0.001*[#  18]
    |psi|^2 = 0.005
==== e(  51) =    12.34825 eV ==== 

    |psi|^2 = 0.000
==== e(  52) =    12.44010 eV ==== 

    |psi|^2 = 0.000
==== e(  53) =    13.05155 eV ==== 

    |psi|^2 = 0.001
==== e(  54) =    13.07530 eV ==== 

    |psi|^2 = 0.000
==== e(  55) =    13.15525 eV ==== 
     psi = 0.002*[#   8]+0.002*[#   9]+0.002*[#  17]+0.002*[#  18]
    |psi|^2 = 0.008
==== e(  56) =    13.16004 eV ==== 

    |psi|^2 = 0.001
==== e(  57) =    13.22998 eV ==== 
     psi = 0.003*[#   8]+0.003*[#   9]+0.003*[#  17]+0.003*[#  18]
    |psi|^2 = 0.012
==== e(  58) =    13.24436 eV ==== 

    |psi|^2 = 0.000
==== e(  59) =    13.31952 eV ==== 
     psi = 0.003*[#   8]+0.003*[#   9]+0.003*[#  17]+0.003*[#  18]
    |psi|^2 = 0.013
==== e(  60) =    13.60503 eV ==== 

    |psi|^2 = 0.000

 k =   0.0000000000  0.2116950987  0.0000000000
==== e(   1) =   -24.16394 eV ==== 
     psi = 0.186*[#   4]+0.186*[#   5]+0.186*[#  13]+0.186*[#  14]+0.125*[#   1]
          +0.125*[#  10]
    |psi|^2 = 1.000
==== e(   2) =   -24.16016 eV ==== 
     psi = 0.249*[#   4]+0.249*[#   5]+0.249*[#  13]+0.249*[#  14]+0.001*[#   8]
          +0.001*[#   9]+0.001*[#  17]+0.001*[#  18]
    |psi|^2 = 1.000
==== e(   3) =   -24.10240 eV ==== 
     psi = 0.349*[#   1]+0.349*[#  10]+0.074*[#   4]+0.074*[#   5]+0.074*[#  13]
          +0.074*[#  14]+0.001*[#   6]+0.001*[#  15]
    |psi|^2 = 1.000
==== e(   4) =   -24.00212 eV ==== 
     psi = 0.250*[#   2]+0.250*[#   3]+0.250*[#  11]+0.250*[#  12]
    |psi|^2 = 1.000
==== e(   5) =   -23.98307 eV ==== 
     psi = 0.250*[#   2]+0.250*[#   3]+0.250*[#  11]+0.250*[#  12]
    |psi|^2 = 1.000
==== e(   6) =   -23.78012 eV ==== 
     psi = 0.195*[#   4]+0.195*[#   5]+0.195*[#  13]+0.195*[#  14]+0.109*[#   1]
          +0.109*[#  10]
    |psi|^2 = 1.000
==== e(   7) =   -23.77938 eV ==== 
     psi = 0.250*[#   2]+0.250*[#   3]+0.250*[#  11]+0.250*[#  12]
    |psi|^2 = 1.000
==== e(   8) =   -23.76260 eV ==== 
     psi = 0.249*[#   4]+0.249*[#   5]+0.249*[#  13]+0.249*[#  14]
    |psi|^2 = 1.000
==== e(   9) =   -23.75858 eV ==== 
     psi = 0.250*[#   2]+0.250*[#   3]+0.250*[#  11]+0.250*[#  12]
    |psi|^2 = 1.000
==== e(  10) =   -23.69980 eV ==== 
     psi = 0.415*[#   1]+0.415*[#  10]+0.042*[#   4]+0.042*[#   5]+0.042*[#  13]
          +0.042*[#  14]
    |psi|^2 = 1.000
==== e(  11) =   -11.92118 eV ==== 
     psi = 0.460*[#   6]+0.460*[#  15]+0.019*[#   8]+0.019*[#   9]+0.019*[#  17]
          +0.019*[#  18]+0.001*[#   1]+0.001*[#  10]
    |psi|^2 = 0.997
==== e(  12) =    -6.08449 eV ==== 
     psi = 0.270*[#   6]+0.270*[#  15]+0.114*[#   8]+0.114*[#   9]+0.114*[#  17]
          +0.114*[#  18]
    |psi|^2 = 0.998
==== e(  13) =    -3.99849 eV ==== 
     psi = 0.498*[#   7]+0.498*[#  16]
    |psi|^2 = 0.996
==== e(  14) =    -3.84510 eV ==== 
     psi = 0.248*[#   8]+0.248*[#   9]+0.248*[#  17]+0.248*[#  18]
    |psi|^2 = 0.997
==== e(  15) =    -1.60778 eV ==== 
     psi = 0.203*[#   6]+0.203*[#  15]+0.142*[#   8]+0.142*[#   9]+0.142*[#  17]
          +0.142*[#  18]
    |psi|^2 = 0.975
==== e(  16) =     0.94123 eV ==== 
     psi = 0.176*[#   8]+0.176*[#   9]+0.176*[#  17]+0.176*[#  18]+0.048*[#   6]
          +0.048*[#  15]
    |psi|^2 = 0.802
==== e(  17) =     1.24977 eV ==== 
     psi = 0.465*[#   7]+0.465*[#  16]
    |psi|^2 = 0.929
==== e(  18) =     1.36853 eV ==== 
     psi = 0.015*[#   8]+0.015*[#   9]+0.015*[#  17]+0.015*[#  18]+0.005*[#   6]
          +0.005*[#  15]
    |psi|^2 = 0.072
==== e(  19) =     1.73687 eV ==== 
     psi = 0.228*[#   8]+0.228*[#   9]+0.228*[#  17]+0.228*[#  18]+0.001*[#   4]
          +0.001*[#   5]+0.001*[#  13]+0.001*[#  14]
    |psi|^2 = 0.918
==== e(  20) =     2.28884 eV ==== 
     psi = 0.001*[#   7]+0.001*[#  16]
    |psi|^2 = 0.003
==== e(  21) =     2.59203 eV ==== 

    |psi|^2 = 0.000
==== e(  22) =     3.70439 eV ==== 

    |psi|^2 = 0.001
==== e(  23) =     3.97618 eV ==== 

    |psi|^2 = 0.000
==== e(  24) =     5.28718 eV ==== 
     psi = 0.014*[#   7]+0.014*[#  16]
    |psi|^2 = 0.027
==== e(  25) =     5.38627 eV ==== 

    |psi|^2 = 0.000
==== e(  26) =     5.39359 eV ==== 
     psi = 0.010*[#   8]+0.010*[#   9]+0.010*[#  17]+0.010*[#  18]+0.001*[#   6]
          +0.001*[#  15]
    |psi|^2 = 0.044
==== e(  27) =     6.18692 eV ==== 
     psi = 0.003*[#   7]+0.003*[#  16]
    |psi|^2 = 0.006
==== e(  28) =     6.34048 eV ==== 

    |psi|^2 = 0.001
==== e(  29) =     7.06181 eV ==== 

    |psi|^2 = 0.004
==== e(  30) =     7.84169 eV ==== 
     psi = 0.013*[#   7]+0.013*[#  16]
    |psi|^2 = 0.026
==== e(  31) =     8.27804 eV ==== 

    |psi|^2 = 0.000
==== e(  32) =     8.35601 eV ==== 

    |psi|^2 = 0.000
==== e(  33) =     8.56885 eV ==== 

    |psi|^2 = 0.002
==== e(  34) =     8.64861 eV ==== 

    |psi|^2 = 0.000
==== e(  35) =     8.98425 eV ==== 

    |psi|^2 = 0.001
==== e(  36) =     9.27143 eV ==== 

    |psi|^2 = 0.000
==== e(  37) =     9.57484 eV ==== 

    |psi|^2 = 0.000
==== e(  38) =     9.62331 eV ==== 

    |psi|^2 = 0.001
==== e(  39) =     9.77214 eV ==== 

    |psi|^2 = 0.001
==== e(  40) =     9.98509 eV ==== 

    |psi|^2 = 0.000
==== e(  41) =    10.02399 eV ==== 

    |psi|^2 = 0.000
==== e(  42) =    10.03121 eV ==== 

    |psi|^2 = 0.000
==== e(  43) =    10.11240 eV ==== 

    |psi|^2 = 0.000
==== e(  44) =    10.79509 eV ==== 

    |psi|^2 = 0.001
==== e(  45) =    11.25712 eV ==== 

    |psi|^2 = 0.000
==== e(  46) =    11.32530 eV ==== 

    |psi|^2 = 0.001
==== e(  47) =    11.41925 eV ==== 

    |psi|^2 = 0.000
==== e(  48) =    11.49288 eV ==== 

    |psi|^2 = 0.001
==== e(  49) =    11.88573 eV ==== 

    |psi|^2 = 0.001
==== e(  50) =    12.08183 eV ==== 
     psi = 0.002*[#   8]+0.002*[#   9]+0.002*[#  17]+0.002*[#  18]
    |psi|^2 = 0.007
==== e(  51) =    12.11974 eV ==== 

    |psi|^2 = 0.000
==== e(  52) =    12.34639 eV ==== 

    |psi|^2 = 0.001
==== e(  53) =    12.89933 eV ==== 
     psi = 0.005*[#   8]+0.005*[#   9]+0.005*[#  17]+0.005*[#  18]
    |psi|^2 = 0.021
==== e(  54) =    13.21996 eV ==== 

    |psi|^2 = 0.000
==== e(  55) =    13.27355 eV ==== 

    |psi|^2 = 0.000
==== e(  56) =    13.29034 eV ==== 

    |psi|^2 = 0.001
==== e(  57) =    13.32943 eV ==== 
     psi = 0.006*[#   8]+0.006*[#   9]+0.006*[#  17]+0.006*[#  18]+0.002*[#   6]
          +0.002*[#  15]
    |psi|^2 = 0.028
==== e(  58) =    13.36830 eV ==== 

    |psi|^2 = 0.000
==== e(  59) =    13.37546 eV ==== 

    |psi|^2 = 0.001
==== e(  60) =    13.64135 eV ==== 

    |psi|^2 = 0.000

 k =   0.0000000000  0.2309401077  0.0000000000
==== e(   1) =   -24.17235 eV ==== 
     psi = 0.191*[#   4]+0.191*[#   5]+0.191*[#  13]+0.191*[#  14]+0.117*[#   1]
          +0.117*[#  10]
    |psi|^2 = 1.000
==== e(   2) =   -24.16858 eV ==== 
     psi = 0.249*[#   4]+0.249*[#   5]+0.249*[#  13]+0.249*[#  14]
    |psi|^2 = 1.000
==== e(   3) =   -24.10148 eV ==== 
     psi = 0.355*[#   1]+0.355*[#  10]+0.071*[#   4]+0.071*[#   5]+0.071*[#  13]
          +0.071*[#  14]+0.001*[#   6]+0.001*[#  15]
    |psi|^2 = 1.000
==== e(   4) =   -24.00316 eV ==== 
     psi = 0.250*[#   2]+0.250*[#   3]+0.250*[#  11]+0.250*[#  12]
    |psi|^2 = 1.000
==== e(   5) =   -23.98083 eV ==== 
     psi = 0.250*[#   2]+0.250*[#   3]+0.250*[#  11]+0.250*[#  12]
    |psi|^2 = 1.000
==== e(   6) =   -23.78191 eV ==== 
     psi = 0.250*[#   2]+0.250*[#   3]+0.250*[#  11]+0.250*[#  12]
    |psi|^2 = 1.000
==== e(   7) =   -23.77453 eV ==== 
     psi = 0.180*[#   4]+0.180*[#   5]+0.180*[#  13]+0.180*[#  14]+0.137*[#   1]
          +0.137*[#  10]
    |psi|^2 = 1.000
==== e(   8) =   -23.75754 eV ==== 
     psi = 0.250*[#   2]+0.250*[#   3]+0.250*[#  11]+0.250*[#  12]
    |psi|^2 = 1.000
==== e(   9) =   -23.75287 eV ==== 
     psi = 0.249*[#   4]+0.249*[#   5]+0.249*[#  13]+0.249*[#  14]
    |psi|^2 = 1.000
==== e(  10) =   -23.69709 eV ==== 
     psi = 0.389*[#   1]+0.389*[#  10]+0.055*[#   4]+0.055*[#   5]+0.055*[#  13]
          +0.055*[#  14]
    |psi|^2 = 1.000
==== e(  11) =   -11.86767 eV ==== 
     psi = 0.454*[#   6]+0.454*[#  15]+0.021*[#   8]+0.021*[#   9]+0.021*[#  17]
          +0.021*[#  18]+0.001*[#   1]+0.001*[#  10]
    |psi|^2 = 0.997
==== e(  12) =    -6.30422 eV ==== 
     psi = 0.269*[#   6]+0.269*[#  15]+0.114*[#   8]+0.114*[#   9]+0.114*[#  17]
          +0.114*[#  18]
    |psi|^2 = 0.998
==== e(  13) =    -3.94384 eV ==== 
     psi = 0.497*[#   7]+0.497*[#  16]
    |psi|^2 = 0.995
==== e(  14) =    -3.91302 eV ==== 
     psi = 0.248*[#   8]+0.248*[#   9]+0.248*[#  17]+0.248*[#  18]
    |psi|^2 = 0.997
==== e(  15) =    -1.55534 eV ==== 
     psi = 0.199*[#   6]+0.199*[#  15]+0.143*[#   8]+0.143*[#   9]+0.143*[#  17]
          +0.143*[#  18]
    |psi|^2 = 0.971
==== e(  16) =     1.07657 eV ==== 
     psi = 0.161*[#   8]+0.161*[#   9]+0.161*[#  17]+0.161*[#  18]+0.054*[#   6]
          +0.054*[#  15]
    |psi|^2 = 0.755
==== e(  17) =     1.09197 eV ==== 
     psi = 0.463*[#   7]+0.463*[#  16]
    |psi|^2 = 0.927
==== e(  18) =     1.43848 eV ==== 
     psi = 0.023*[#   8]+0.023*[#   9]+0.023*[#  17]+0.023*[#  18]+0.009*[#   6]
          +0.009*[#  15]
    |psi|^2 = 0.110
==== e(  19) =     1.91345 eV ==== 
     psi = 0.227*[#   8]+0.227*[#   9]+0.227*[#  17]+0.227*[#  18]
    |psi|^2 = 0.912
==== e(  20) =     2.34395 eV ==== 
     psi = 0.001*[#   7]+0.001*[#  16]
    |psi|^2 = 0.003
==== e(  21) =     2.65042 eV ==== 

    |psi|^2 = 0.000
==== e(  22) =     3.75395 eV ==== 
     psi = 0.001*[#   7]+0.001*[#  16]
    |psi|^2 = 0.002
==== e(  23) =     4.03465 eV ==== 

    |psi|^2 = 0.000
==== e(  24) =     5.19036 eV ==== 
     psi = 0.015*[#   7]+0.015*[#  16]
    |psi|^2 = 0.030
==== e(  25) =     5.31161 eV ==== 

    |psi|^2 = 0.000
==== e(  26) =     5.62091 eV ==== 
     psi = 0.011*[#   8]+0.011*[#   9]+0.011*[#  17]+0.011*[#  18]+0.002*[#   6]
          +0.002*[#  15]
    |psi|^2 = 0.049
==== e(  27) =     6.23596 eV ==== 
     psi = 0.003*[#   7]+0.003*[#  16]
    |psi|^2 = 0.005
==== e(  28) =     6.39144 eV ==== 

    |psi|^2 = 0.001
==== e(  29) =     6.83863 eV ==== 

    |psi|^2 = 0.004
==== e(  30) =     7.94389 eV ==== 
     psi = 0.008*[#   7]+0.008*[#  16]
    |psi|^2 = 0.016
==== e(  31) =     8.10863 eV ==== 
     psi = 0.005*[#   7]+0.005*[#  16]
    |psi|^2 = 0.011
==== e(  32) =     8.11459 eV ==== 

    |psi|^2 = 0.001
==== e(  33) =     8.47692 eV ==== 

    |psi|^2 = 0.002
==== e(  34) =     8.82314 eV ==== 

    |psi|^2 = 0.000
==== e(  35) =     8.88104 eV ==== 

    |psi|^2 = 0.002
==== e(  36) =     9.29979 eV ==== 

    |psi|^2 = 0.000
==== e(  37) =     9.42866 eV ==== 

    |psi|^2 = 0.000
==== e(  38) =     9.50177 eV ==== 

    |psi|^2 = 0.001
==== e(  39) =     9.67111 eV ==== 

    |psi|^2 = 0.000
==== e(  40) =     9.89748 eV ==== 

    |psi|^2 = 0.000
==== e(  41) =     9.93086 eV ==== 

    |psi|^2 = 0.000
==== e(  42) =     9.94482 eV ==== 

    |psi|^2 = 0.000
==== e(  43) =    10.01540 eV ==== 

    |psi|^2 = 0.000
==== e(  44) =    11.04830 eV ==== 

    |psi|^2 = 0.000
==== e(  45) =    11.17968 eV ==== 

    |psi|^2 = 0.000
==== e(  46) =    11.24740 eV ==== 

    |psi|^2 = 0.002
==== e(  47) =    11.32853 eV ==== 

    |psi|^2 = 0.000
==== e(  48) =    11.38984 eV ==== 

    |psi|^2 = 0.001
==== e(  49) =    11.78733 eV ==== 

    |psi|^2 = 0.001
==== e(  50) =    11.89993 eV ==== 

    |psi|^2 = 0.000
==== e(  51) =    12.22092 eV ==== 
     psi = 0.004*[#   8]+0.004*[#   9]+0.004*[#  17]+0.004*[#  18]
    |psi|^2 = 0.015
==== e(  52) =    12.41495 eV ==== 

    |psi|^2 = 0.002
==== e(  53) =    12.62299 eV ==== 
     psi = 0.004*[#   8]+0.004*[#   9]+0.004*[#  17]+0.004*[#  18]
    |psi|^2 = 0.018
==== e(  54) =    13.18460 eV ==== 
     psi = 0.010*[#   8]+0.010*[#   9]+0.010*[#  17]+0.010*[#  18]+0.003*[#   6]
          +0.003*[#  15]
    |psi|^2 = 0.047
==== e(  55) =    13.28583 eV ==== 

    |psi|^2 = 0.000
==== e(  56) =    13.41258 eV ==== 

    |psi|^2 = 0.001
==== e(  57) =    13.46934 eV ==== 

    |psi|^2 = 0.000
==== e(  58) =    13.47275 eV ==== 

    |psi|^2 = 0.000
==== e(  59) =    13.59081 eV ==== 

    |psi|^2 = 0.001
==== e(  60) =    13.66752 eV ==== 

    |psi|^2 = 0.000

 k =   0.0000000000  0.2501851166  0.0000000000
==== e(   1) =   -24.18071 eV ==== 
     psi = 0.194*[#   4]+0.194*[#   5]+0.194*[#  13]+0.194*[#  14]+0.110*[#   1]
          +0.110*[#  10]
    |psi|^2 = 1.000
==== e(   2) =   -24.17691 eV ==== 
     psi = 0.249*[#   4]+0.249*[#   5]+0.249*[#  13]+0.249*[#  14]
    |psi|^2 = 1.000
==== e(   3) =   -24.10049 eV ==== 
     psi = 0.359*[#   1]+0.359*[#  10]+0.069*[#   4]+0.069*[#   5]+0.069*[#  13]
          +0.069*[#  14]+0.001*[#   6]+0.001*[#  15]
    |psi|^2 = 1.000
==== e(   4) =   -24.00422 eV ==== 
     psi = 0.250*[#   2]+0.250*[#   3]+0.250*[#  11]+0.250*[#  12]
    |psi|^2 = 1.000
==== e(   5) =   -23.97846 eV ==== 
     psi = 0.250*[#   2]+0.250*[#   3]+0.250*[#  11]+0.250*[#  12]
    |psi|^2 = 1.000
==== e(   6) =   -23.78458 eV ==== 
     psi = 0.250*[#   2]+0.250*[#   3]+0.250*[#  11]+0.250*[#  12]
    |psi|^2 = 1.000
==== e(   7) =   -23.76964 eV ==== 
     psi = 0.169*[#   1]+0.169*[#  10]+0.164*[#   4]+0.164*[#   5]+0.164*[#  13]
          +0.164*[#  14]
    |psi|^2 = 1.000
==== e(   8) =   -23.75648 eV ==== 
     psi = 0.250*[#   2]+0.250*[#   3]+0.250*[#  11]+0.250*[#  12]
    |psi|^2 = 1.000
==== e(   9) =   -23.74320 eV ==== 
     psi = 0.249*[#   4]+0.249*[#   5]+0.249*[#  13]+0.249*[#  14]
    |psi|^2 = 1.000
==== e(  10) =   -23.69376 eV ==== 
     psi = 0.359*[#   1]+0.359*[#  10]+0.070*[#   4]+0.070*[#   5]+0.070*[#  13]
          +0.070*[#  14]
    |psi|^2 = 1.000
==== e(  11) =   -11.80979 eV ==== 
     psi = 0.448*[#   6]+0.448*[#  15]+0.024*[#   8]+0.024*[#   9]+0.024*[#  17]
          +0.024*[#  18]+0.001*[#   1]+0.001*[#  10]
    |psi|^2 = 0.997
==== e(  12) =    -6.52050 eV ==== 
     psi = 0.269*[#   6]+0.269*[#  15]+0.114*[#   8]+0.114*[#   9]+0.114*[#  17]
          +0.114*[#  18]
    |psi|^2 = 0.998
==== e(  13) =    -3.98045 eV ==== 
     psi = 0.248*[#   8]+0.248*[#   9]+0.248*[#  17]+0.248*[#  18]
    |psi|^2 = 0.997
==== e(  14) =    -3.88486 eV ==== 
     psi = 0.497*[#   7]+0.497*[#  16]
    |psi|^2 = 0.995
==== e(  15) =    -1.52378 eV ==== 
     psi = 0.194*[#   6]+0.194*[#  15]+0.144*[#   8]+0.144*[#   9]+0.144*[#  17]
          +0.144*[#  18]
    |psi|^2 = 0.967
==== e(  16) =     0.93133 eV ==== 
     psi = 0.462*[#   7]+0.462*[#  16]
    |psi|^2 = 0.925
==== e(  17) =     1.22678 eV ==== 
     psi = 0.138*[#   8]+0.138*[#   9]+0.138*[#  17]+0.138*[#  18]+0.054*[#   6]
          +0.054*[#  15]
    |psi|^2 = 0.662
==== e(  18) =     1.52307 eV ==== 
     psi = 0.040*[#   8]+0.040*[#   9]+0.040*[#  17]+0.040*[#  18]+0.017*[#   6]
          +0.017*[#  15]
    |psi|^2 = 0.194
==== e(  19) =     2.09859 eV ==== 
     psi = 0.226*[#   8]+0.226*[#   9]+0.226*[#  17]+0.226*[#  18]
    |psi|^2 = 0.906
==== e(  20) =     2.40357 eV ==== 
     psi = 0.002*[#   7]+0.002*[#  16]
    |psi|^2 = 0.003
==== e(  21) =     2.71381 eV ==== 

    |psi|^2 = 0.000
==== e(  22) =     3.80629 eV ==== 
     psi = 0.001*[#   7]+0.001*[#  16]
    |psi|^2 = 0.003
==== e(  23) =     4.09765 eV ==== 

    |psi|^2 = 0.000
==== e(  24) =     5.09760 eV ==== 
     psi = 0.016*[#   7]+0.016*[#  16]
    |psi|^2 = 0.031
==== e(  25) =     5.24009 eV ==== 

    |psi|^2 = 0.000
==== e(  26) =     5.85115 eV ==== 
     psi = 0.012*[#   8]+0.012*[#   9]+0.012*[#  17]+0.012*[#  18]+0.003*[#   6]
          +0.003*[#  15]
    |psi|^2 = 0.055
==== e(  27) =     6.29028 eV ==== 
     psi = 0.002*[#   7]+0.002*[#  16]
    |psi|^2 = 0.004
==== e(  28) =     6.42898 eV ==== 

    |psi|^2 = 0.002
==== e(  29) =     6.64388 eV ==== 

    |psi|^2 = 0.003
==== e(  30) =     7.77823 eV ==== 
     psi = 0.001*[#   7]+0.001*[#  16]
    |psi|^2 = 0.002
==== e(  31) =     7.87715 eV ==== 

    |psi|^2 = 0.001
==== e(  32) =     8.21673 eV ==== 
     psi = 0.013*[#   7]+0.013*[#  16]
    |psi|^2 = 0.026
==== e(  33) =     8.38938 eV ==== 

    |psi|^2 = 0.002
==== e(  34) =     8.77734 eV ==== 

    |psi|^2 = 0.002
==== e(  35) =     9.00015 eV ==== 

    |psi|^2 = 0.000
==== e(  36) =     9.16997 eV ==== 

    |psi|^2 = 0.000
==== e(  37) =     9.30588 eV ==== 

    |psi|^2 = 0.001
==== e(  38) =     9.38735 eV ==== 

    |psi|^2 = 0.001
==== e(  39) =     9.70318 eV ==== 

    |psi|^2 = 0.000
==== e(  40) =     9.81805 eV ==== 

    |psi|^2 = 0.000
[...]

    |psi|^2 = 0.000
==== e(  34) =     7.08461 eV ==== 

    |psi|^2 = 0.001
==== e(  35) =     8.49396 eV ==== 
     psi = 0.003*[#   7]+0.003*[#  16]
    |psi|^2 = 0.007
==== e(  36) =     8.53682 eV ==== 
     psi = 0.001*[#   7]+0.001*[#  16]
    |psi|^2 = 0.002
==== e(  37) =     8.67581 eV ==== 
     psi = 0.215*[#   8]+0.215*[#   9]+0.215*[#  17]+0.215*[#  18]
    |psi|^2 = 0.864
==== e(  38) =     8.83788 eV ==== 
     psi = 0.025*[#   8]+0.025*[#   9]+0.025*[#  17]+0.025*[#  18]
    |psi|^2 = 0.101
==== e(  39) =     8.96125 eV ==== 

    |psi|^2 = 0.001
==== e(  40) =     9.20224 eV ==== 
     psi = 0.001*[#   7]+0.001*[#  16]
    |psi|^2 = 0.002
==== e(  41) =     9.29070 eV ==== 

    |psi|^2 = 0.001
==== e(  42) =     9.39368 eV ==== 

    |psi|^2 = 0.000
==== e(  43) =     9.67472 eV ==== 
     psi = 0.003*[#   7]+0.003*[#  16]
    |psi|^2 = 0.007
==== e(  44) =    10.01426 eV ==== 

    |psi|^2 = 0.001
==== e(  45) =    11.16464 eV ==== 
     psi = 0.006*[#   6]+0.006*[#  15]+0.003*[#   8]+0.003*[#   9]+0.003*[#  17]
          +0.003*[#  18]
    |psi|^2 = 0.025
==== e(  46) =    11.73813 eV ==== 
     psi = 0.005*[#   8]+0.005*[#   9]+0.005*[#  17]+0.005*[#  18]+0.004*[#   6]
          +0.004*[#  15]
    |psi|^2 = 0.027
==== e(  47) =    11.84613 eV ==== 

    |psi|^2 = 0.000
==== e(  48) =    12.07110 eV ==== 

    |psi|^2 = 0.000
==== e(  49) =    12.08060 eV ==== 

    |psi|^2 = 0.001
==== e(  50) =    12.11584 eV ==== 
     psi = 0.001*[#   6]+0.001*[#   8]+0.001*[#   9]+0.001*[#  15]+0.001*[#  17]
          +0.001*[#  18]
    |psi|^2 = 0.008
==== e(  51) =    12.44827 eV ==== 

    |psi|^2 = 0.001
==== e(  52) =    12.67103 eV ==== 

    |psi|^2 = 0.001
==== e(  53) =    12.76284 eV ==== 

    |psi|^2 = 0.000
==== e(  54) =    13.16877 eV ==== 

    |psi|^2 = 0.002
==== e(  55) =    13.55569 eV ==== 

    |psi|^2 = 0.000
==== e(  56) =    13.72559 eV ==== 

    |psi|^2 = 0.000
==== e(  57) =    13.82593 eV ==== 

    |psi|^2 = 0.000
==== e(  58) =    14.22624 eV ==== 

    |psi|^2 = 0.006
==== e(  59) =    14.30477 eV ==== 

    |psi|^2 = 0.002
==== e(  60) =    14.61815 eV ==== 

    |psi|^2 = 0.000

 k =   0.3166666667  0.5484827557  0.0000000000
==== e(   1) =   -24.33986 eV ==== 
     psi = 0.250*[#   4]+0.250*[#   5]+0.250*[#  13]+0.250*[#  14]
    |psi|^2 = 0.999
==== e(   2) =   -24.14883 eV ==== 
     psi = 0.189*[#   1]+0.189*[#  10]+0.154*[#   4]+0.154*[#   5]+0.154*[#  13]
          +0.154*[#  14]
    |psi|^2 = 1.000
==== e(   3) =   -24.13423 eV ==== 
     psi = 0.231*[#   1]+0.231*[#  10]+0.134*[#   4]+0.134*[#   5]+0.134*[#  13]
          +0.134*[#  14]
    |psi|^2 = 1.000
==== e(   4) =   -24.02703 eV ==== 
     psi = 0.250*[#   2]+0.250*[#   3]+0.250*[#  11]+0.250*[#  12]
    |psi|^2 = 1.000
==== e(   5) =   -23.89208 eV ==== 
     psi = 0.250*[#   2]+0.250*[#   3]+0.250*[#  11]+0.250*[#  12]
    |psi|^2 = 1.000
==== e(   6) =   -23.87431 eV ==== 
     psi = 0.250*[#   2]+0.250*[#   3]+0.250*[#  11]+0.250*[#  12]
    |psi|^2 = 1.000
==== e(   7) =   -23.73474 eV ==== 
     psi = 0.250*[#   2]+0.250*[#   3]+0.250*[#  11]+0.250*[#  12]
    |psi|^2 = 1.000
==== e(   8) =   -23.72958 eV ==== 
     psi = 0.309*[#   1]+0.309*[#  10]+0.095*[#   4]+0.095*[#   5]+0.095*[#  13]
          +0.095*[#  14]
    |psi|^2 = 1.000
==== e(   9) =   -23.72282 eV ==== 
     psi = 0.268*[#   1]+0.268*[#  10]+0.116*[#   4]+0.116*[#   5]+0.116*[#  13]
          +0.116*[#  14]
    |psi|^2 = 1.000
==== e(  10) =   -23.55780 eV ==== 
     psi = 0.250*[#   4]+0.250*[#   5]+0.250*[#  13]+0.250*[#  14]
    |psi|^2 = 1.000
==== e(  11) =    -9.97519 eV ==== 
     psi = 0.351*[#   6]+0.351*[#  15]+0.073*[#   8]+0.073*[#   9]+0.073*[#  17]
          +0.073*[#  18]
    |psi|^2 = 0.997
==== e(  12) =    -9.63337 eV ==== 
     psi = 0.337*[#   6]+0.337*[#  15]+0.080*[#   8]+0.080*[#   9]+0.080*[#  17]
          +0.080*[#  18]
    |psi|^2 = 0.997
==== e(  13) =    -5.81405 eV ==== 
     psi = 0.249*[#   8]+0.249*[#   9]+0.249*[#  17]+0.249*[#  18]
    |psi|^2 = 0.997
==== e(  14) =    -2.08068 eV ==== 
     psi = 0.491*[#   7]+0.491*[#  16]
    |psi|^2 = 0.983
==== e(  15) =    -1.75600 eV ==== 
     psi = 0.489*[#   7]+0.489*[#  16]
    |psi|^2 = 0.979
==== e(  16) =     1.58465 eV ==== 
     psi = 0.154*[#   8]+0.154*[#   9]+0.154*[#  17]+0.154*[#  18]+0.147*[#   6]
          +0.147*[#  15]
    |psi|^2 = 0.911
==== e(  17) =     2.07055 eV ==== 
     psi = 0.151*[#   8]+0.151*[#   9]+0.151*[#  17]+0.151*[#  18]+0.127*[#   6]
          +0.127*[#  15]
    |psi|^2 = 0.858
==== e(  18) =     2.16133 eV ==== 

    |psi|^2 = 0.000
==== e(  19) =     3.45178 eV ==== 

    |psi|^2 = 0.003
==== e(  20) =     3.81787 eV ==== 
     psi = 0.012*[#   8]+0.012*[#   9]+0.012*[#  17]+0.012*[#  18]+0.008*[#   6]
          +0.008*[#  15]
    |psi|^2 = 0.063
==== e(  21) =     4.01571 eV ==== 
     psi = 0.004*[#   8]+0.004*[#   9]+0.004*[#  17]+0.004*[#  18]+0.002*[#   6]
          +0.002*[#  15]
    |psi|^2 = 0.021
==== e(  22) =     4.76906 eV ==== 

    |psi|^2 = 0.002
==== e(  23) =     4.79403 eV ==== 

    |psi|^2 = 0.001
==== e(  24) =     5.08745 eV ==== 

    |psi|^2 = 0.003
==== e(  25) =     5.13212 eV ==== 
     psi = 0.001*[#   7]+0.001*[#  16]
    |psi|^2 = 0.003
==== e(  26) =     5.46899 eV ==== 

    |psi|^2 = 0.001
==== e(  27) =     5.47281 eV ==== 

    |psi|^2 = 0.000
==== e(  28) =     5.55056 eV ==== 

    |psi|^2 = 0.000
==== e(  29) =     6.22655 eV ==== 

    |psi|^2 = 0.001
==== e(  30) =     6.41929 eV ==== 

    |psi|^2 = 0.003
==== e(  31) =     6.57651 eV ==== 

    |psi|^2 = 0.002
==== e(  32) =     6.79115 eV ==== 

    |psi|^2 = 0.003
==== e(  33) =     6.94456 eV ==== 

    |psi|^2 = 0.000
==== e(  34) =     7.02154 eV ==== 

    |psi|^2 = 0.001
==== e(  35) =     8.45648 eV ==== 
     psi = 0.001*[#   7]+0.001*[#  16]
    |psi|^2 = 0.002
==== e(  36) =     8.62292 eV ==== 
     psi = 0.004*[#   7]+0.004*[#  16]
    |psi|^2 = 0.008
==== e(  37) =     8.66658 eV ==== 
     psi = 0.233*[#   8]+0.233*[#   9]+0.233*[#  17]+0.233*[#  18]+0.001*[#   6]
          +0.001*[#  15]
    |psi|^2 = 0.937
==== e(  38) =     8.73777 eV ==== 

    |psi|^2 = 0.001
==== e(  39) =     9.11932 eV ==== 
     psi = 0.005*[#   8]+0.005*[#   9]+0.005*[#  17]+0.005*[#  18]
    |psi|^2 = 0.019
==== e(  40) =     9.19814 eV ==== 

    |psi|^2 = 0.000
==== e(  41) =     9.32846 eV ==== 

    |psi|^2 = 0.000
==== e(  42) =     9.33526 eV ==== 
     psi = 0.002*[#   7]+0.002*[#  16]
    |psi|^2 = 0.004
==== e(  43) =     9.47113 eV ==== 
     psi = 0.002*[#   7]+0.002*[#  16]
    |psi|^2 = 0.004
==== e(  44) =    10.12805 eV ==== 
     psi = 0.001*[#   7]+0.001*[#  16]
    |psi|^2 = 0.003
==== e(  45) =    11.29179 eV ==== 
     psi = 0.008*[#   8]+0.008*[#   9]+0.008*[#  17]+0.008*[#  18]+0.006*[#   6]
          +0.006*[#  15]
    |psi|^2 = 0.044
==== e(  46) =    11.62727 eV ==== 
     psi = 0.004*[#   6]+0.004*[#  15]+0.002*[#   8]+0.002*[#   9]+0.002*[#  17]
          +0.002*[#  18]
    |psi|^2 = 0.018
==== e(  47) =    11.79611 eV ==== 

    |psi|^2 = 0.000
==== e(  48) =    11.96786 eV ==== 

    |psi|^2 = 0.005
==== e(  49) =    12.14391 eV ==== 

    |psi|^2 = 0.000
==== e(  50) =    12.34574 eV ==== 

    |psi|^2 = 0.001
==== e(  51) =    12.37705 eV ==== 

    |psi|^2 = 0.002
==== e(  52) =    12.74023 eV ==== 

    |psi|^2 = 0.000
==== e(  53) =    12.77741 eV ==== 

    |psi|^2 = 0.001
==== e(  54) =    12.92183 eV ==== 

    |psi|^2 = 0.000
==== e(  55) =    13.57635 eV ==== 

    |psi|^2 = 0.001
==== e(  56) =    14.02212 eV ==== 

    |psi|^2 = 0.000
==== e(  57) =    14.02836 eV ==== 

    |psi|^2 = 0.001
==== e(  58) =    14.05186 eV ==== 

    |psi|^2 = 0.003
==== e(  59) =    14.11506 eV ==== 

    |psi|^2 = 0.000
==== e(  60) =    14.26876 eV ==== 

    |psi|^2 = 0.003

 k =   0.3166666667  0.5677277647  0.0000000000
==== e(   1) =   -24.34053 eV ==== 
     psi = 0.250*[#   4]+0.250*[#   5]+0.250*[#  13]+0.250*[#  14]
    |psi|^2 = 0.999
==== e(   2) =   -24.14586 eV ==== 
     psi = 0.198*[#   1]+0.198*[#  10]+0.150*[#   4]+0.150*[#   5]+0.150*[#  13]
          +0.150*[#  14]
    |psi|^2 = 1.000
==== e(   3) =   -24.13701 eV ==== 
     psi = 0.222*[#   1]+0.222*[#  10]+0.138*[#   4]+0.138*[#   5]+0.138*[#  13]
          +0.138*[#  14]
    |psi|^2 = 1.000
==== e(   4) =   -24.02717 eV ==== 
     psi = 0.250*[#   2]+0.250*[#   3]+0.250*[#  11]+0.250*[#  12]
    |psi|^2 = 1.000
==== e(   5) =   -23.88830 eV ==== 
     psi = 0.250*[#   2]+0.250*[#   3]+0.250*[#  11]+0.250*[#  12]
    |psi|^2 = 1.000
==== e(   6) =   -23.87810 eV ==== 
     psi = 0.250*[#   2]+0.250*[#   3]+0.250*[#  11]+0.250*[#  12]
    |psi|^2 = 1.000
==== e(   7) =   -23.73461 eV ==== 
     psi = 0.250*[#   2]+0.250*[#   3]+0.250*[#  11]+0.250*[#  12]
    |psi|^2 = 1.000
==== e(   8) =   -23.72840 eV ==== 
     psi = 0.301*[#   1]+0.301*[#  10]+0.099*[#   4]+0.099*[#   5]+0.099*[#  13]
          +0.099*[#  14]
    |psi|^2 = 1.000
==== e(   9) =   -23.72412 eV ==== 
     psi = 0.277*[#   1]+0.277*[#  10]+0.111*[#   4]+0.111*[#   5]+0.111*[#  13]
          +0.111*[#  14]
    |psi|^2 = 1.000
==== e(  10) =   -23.55706 eV ==== 
     psi = 0.250*[#   4]+0.250*[#   5]+0.250*[#  13]+0.250*[#  14]
    |psi|^2 = 1.000
==== e(  11) =    -9.89976 eV ==== 
     psi = 0.348*[#   6]+0.348*[#  15]+0.074*[#   8]+0.074*[#   9]+0.074*[#  17]
          +0.074*[#  18]
    |psi|^2 = 0.997
==== e(  12) =    -9.71067 eV ==== 
     psi = 0.340*[#   6]+0.340*[#  15]+0.079*[#   8]+0.079*[#   9]+0.079*[#  17]
          +0.079*[#  18]
    |psi|^2 = 0.997
==== e(  13) =    -5.82557 eV ==== 
     psi = 0.249*[#   8]+0.249*[#   9]+0.249*[#  17]+0.249*[#  18]
    |psi|^2 = 0.997
==== e(  14) =    -2.00881 eV ==== 
     psi = 0.491*[#   7]+0.491*[#  16]
    |psi|^2 = 0.983
==== e(  15) =    -1.82895 eV ==== 
     psi = 0.489*[#   7]+0.489*[#  16]
    |psi|^2 = 0.980
==== e(  16) =     1.69116 eV ==== 
     psi = 0.154*[#   8]+0.154*[#   9]+0.154*[#  17]+0.154*[#  18]+0.144*[#   6]
          +0.144*[#  15]
    |psi|^2 = 0.904
==== e(  17) =     2.02977 eV ==== 
     psi = 0.155*[#   8]+0.155*[#   9]+0.155*[#  17]+0.155*[#  18]+0.135*[#   6]
          +0.135*[#  15]
    |psi|^2 = 0.890
==== e(  18) =     2.14966 eV ==== 

    |psi|^2 = 0.000
==== e(  19) =     3.47253 eV ==== 

    |psi|^2 = 0.003
==== e(  20) =     3.79583 eV ==== 
     psi = 0.007*[#   8]+0.007*[#   9]+0.007*[#  17]+0.007*[#  18]+0.004*[#   6]
          +0.004*[#  15]
    |psi|^2 = 0.036
==== e(  21) =     3.95412 eV ==== 
     psi = 0.005*[#   8]+0.005*[#   9]+0.005*[#  17]+0.005*[#  18]+0.003*[#   6]
          +0.003*[#  15]
    |psi|^2 = 0.025
==== e(  22) =     4.78662 eV ==== 

    |psi|^2 = 0.001
==== e(  23) =     4.87824 eV ==== 
     psi = 0.001*[#   7]+0.001*[#  16]
    |psi|^2 = 0.002
==== e(  24) =     5.04733 eV ==== 
     psi = 0.001*[#   7]+0.001*[#  16]
    |psi|^2 = 0.003
==== e(  25) =     5.19828 eV ==== 

    |psi|^2 = 0.002
==== e(  26) =     5.35401 eV ==== 

    |psi|^2 = 0.001
==== e(  27) =     5.43858 eV ==== 

    |psi|^2 = 0.000
==== e(  28) =     5.51944 eV ==== 

    |psi|^2 = 0.000
==== e(  29) =     6.32919 eV ==== 

    |psi|^2 = 0.001
==== e(  30) =     6.49487 eV ==== 

    |psi|^2 = 0.002
==== e(  31) =     6.53405 eV ==== 

    |psi|^2 = 0.003
==== e(  32) =     6.69993 eV ==== 

    |psi|^2 = 0.002
==== e(  33) =     6.90633 eV ==== 

    |psi|^2 = 0.000
==== e(  34) =     6.98074 eV ==== 

    |psi|^2 = 0.001
==== e(  35) =     8.55114 eV ==== 
     psi = 0.002*[#   7]+0.002*[#  16]
    |psi|^2 = 0.003
==== e(  36) =     8.61390 eV ==== 
     psi = 0.003*[#   7]+0.003*[#  16]
    |psi|^2 = 0.006
==== e(  37) =     8.74109 eV ==== 
     psi = 0.234*[#   8]+0.234*[#   9]+0.234*[#  17]+0.234*[#  18]
    |psi|^2 = 0.938
==== e(  38) =     8.85979 eV ==== 
     psi = 0.006*[#   8]+0.006*[#   9]+0.006*[#  17]+0.006*[#  18]
    |psi|^2 = 0.023
==== e(  39) =     9.02115 eV ==== 
     psi = 0.002*[#   8]+0.002*[#   9]+0.002*[#  17]+0.002*[#  18]
    |psi|^2 = 0.010
==== e(  40) =     9.20056 eV ==== 

    |psi|^2 = 0.000
==== e(  41) =     9.28665 eV ==== 

    |psi|^2 = 0.000
==== e(  42) =     9.33923 eV ==== 
     psi = 0.002*[#   7]+0.002*[#  16]
    |psi|^2 = 0.004
==== e(  43) =     9.53568 eV ==== 
     psi = 0.003*[#   7]+0.003*[#  16]
    |psi|^2 = 0.006
==== e(  44) =     9.94021 eV ==== 

    |psi|^2 = 0.001
==== e(  45) =    11.32137 eV ==== 
     psi = 0.006*[#   6]+0.006*[#  15]+0.004*[#   8]+0.004*[#   9]+0.004*[#  17]
          +0.004*[#  18]
    |psi|^2 = 0.027
==== e(  46) =    11.60124 eV ==== 
     psi = 0.005*[#   6]+0.005*[#  15]+0.003*[#   8]+0.003*[#   9]+0.003*[#  17]
          +0.003*[#  18]
    |psi|^2 = 0.024
==== e(  47) =    11.89389 eV ==== 

    |psi|^2 = 0.000
==== e(  48) =    12.06466 eV ==== 

    |psi|^2 = 0.000
==== e(  49) =    12.09994 eV ==== 

    |psi|^2 = 0.004
==== e(  50) =    12.23213 eV ==== 

    |psi|^2 = 0.002
==== e(  51) =    12.36317 eV ==== 

    |psi|^2 = 0.001
==== e(  52) =    12.70645 eV ==== 

    |psi|^2 = 0.000
==== e(  53) =    12.82631 eV ==== 

    |psi|^2 = 0.000
==== e(  54) =    13.04814 eV ==== 

    |psi|^2 = 0.000
==== e(  55) =    13.45884 eV ==== 

    |psi|^2 = 0.000
==== e(  56) =    14.02049 eV ==== 

    |psi|^2 = 0.000
==== e(  57) =    14.07939 eV ==== 

    |psi|^2 = 0.001
==== e(  58) =    14.21008 eV ==== 

    |psi|^2 = 0.003
==== e(  59) =    14.32058 eV ==== 

    |psi|^2 = 0.000
==== e(  60) =    14.42750 eV ==== 

    |psi|^2 = 0.001

 k =   0.3333333333  0.5773502692  0.0000000000
==== e(   1) =   -24.34086 eV ==== 
     psi = 0.250*[#   4]+0.250*[#   5]+0.250*[#  13]+0.250*[#  14]
    |psi|^2 = 0.999
==== e(   2) =   -24.14137 eV ==== 
     psi = 0.210*[#   1]+0.210*[#  10]+0.144*[#   4]+0.144*[#   5]+0.144*[#  13]
          +0.144*[#  14]
    |psi|^2 = 1.000
==== e(   3) =   -24.14137 eV ==== 
     psi = 0.210*[#   1]+0.210*[#  10]+0.144*[#   4]+0.144*[#   5]+0.144*[#  13]
          +0.144*[#  14]
    |psi|^2 = 1.000
==== e(   4) =   -24.02724 eV ==== 
     psi = 0.250*[#   2]+0.250*[#   3]+0.250*[#  11]+0.250*[#  12]
    |psi|^2 = 1.000
==== e(   5) =   -23.88320 eV ==== 
     psi = 0.250*[#   2]+0.250*[#   3]+0.250*[#  11]+0.250*[#  12]
    |psi|^2 = 1.000
==== e(   6) =   -23.88320 eV ==== 
     psi = 0.250*[#   2]+0.250*[#   3]+0.250*[#  11]+0.250*[#  12]
    |psi|^2 = 1.000
==== e(   7) =   -23.73454 eV ==== 
     psi = 0.250*[#   2]+0.250*[#   3]+0.250*[#  11]+0.250*[#  12]
    |psi|^2 = 1.000
==== e(   8) =   -23.72630 eV ==== 
     psi = 0.289*[#   1]+0.289*[#  10]+0.105*[#   4]+0.105*[#   5]+0.105*[#  13]
          +0.105*[#  14]
    |psi|^2 = 1.000
==== e(   9) =   -23.72630 eV ==== 
     psi = 0.289*[#   1]+0.289*[#  10]+0.105*[#   4]+0.105*[#   5]+0.105*[#  13]
          +0.105*[#  14]
    |psi|^2 = 1.000
==== e(  10) =   -23.55670 eV ==== 
     psi = 0.250*[#   4]+0.250*[#   5]+0.250*[#  13]+0.250*[#  14]
    |psi|^2 = 1.000
==== e(  11) =    -9.80551 eV ==== 
     psi = 0.344*[#   6]+0.344*[#  15]+0.076*[#   8]+0.076*[#   9]+0.076*[#  17]
          +0.076*[#  18]
    |psi|^2 = 0.997
==== e(  12) =    -9.80551 eV ==== 
     psi = 0.344*[#   6]+0.344*[#  15]+0.076*[#   8]+0.076*[#   9]+0.076*[#  17]
          +0.076*[#  18]
    |psi|^2 = 0.997
==== e(  13) =    -5.83159 eV ==== 
     psi = 0.249*[#   8]+0.249*[#   9]+0.249*[#  17]+0.249*[#  18]
    |psi|^2 = 0.997
==== e(  14) =    -1.91901 eV ==== 
     psi = 0.490*[#   7]+0.490*[#  16]
    |psi|^2 = 0.981
==== e(  15) =    -1.91901 eV ==== 
     psi = 0.490*[#   7]+0.490*[#  16]
    |psi|^2 = 0.981
==== e(  16) =     1.87403 eV ==== 
     psi = 0.155*[#   8]+0.155*[#   9]+0.155*[#  17]+0.155*[#  18]+0.140*[#   6]
          +0.140*[#  15]
    |psi|^2 = 0.901
==== e(  17) =     1.87403 eV ==== 
     psi = 0.155*[#   8]+0.155*[#   9]+0.155*[#  17]+0.155*[#  18]+0.140*[#   6]
          +0.140*[#  15]
    |psi|^2 = 0.901
==== e(  18) =     2.14355 eV ==== 

    |psi|^2 = 0.000
==== e(  19) =     3.46774 eV ==== 

    |psi|^2 = 0.001
==== e(  20) =     3.86512 eV ==== 
     psi = 0.005*[#   8]+0.005*[#   9]+0.005*[#  17]+0.005*[#  18]+0.003*[#   6]
          +0.003*[#  15]
    |psi|^2 = 0.027
==== e(  21) =     3.86512 eV ==== 
     psi = 0.005*[#   8]+0.005*[#   9]+0.005*[#  17]+0.005*[#  18]+0.003*[#   6]
          +0.003*[#  15]
    |psi|^2 = 0.027
==== e(  22) =     4.77662 eV ==== 

    |psi|^2 = 0.000
==== e(  23) =     4.97607 eV ==== 
     psi = 0.001*[#   7]+0.001*[#  16]
    |psi|^2 = 0.002
==== e(  24) =     4.97607 eV ==== 
     psi = 0.001*[#   7]+0.001*[#  16]
    |psi|^2 = 0.002
==== e(  25) =     5.30991 eV ==== 

    |psi|^2 = 0.001
==== e(  26) =     5.30991 eV ==== 

    |psi|^2 = 0.001
==== e(  27) =     5.40671 eV ==== 

    |psi|^2 = 0.000
==== e(  28) =     5.43888 eV ==== 

    |psi|^2 = 0.000
==== e(  29) =     6.42418 eV ==== 

    |psi|^2 = 0.001
==== e(  30) =     6.42418 eV ==== 

    |psi|^2 = 0.001
==== e(  31) =     6.63553 eV ==== 

    |psi|^2 = 0.003
==== e(  32) =     6.63553 eV ==== 

    |psi|^2 = 0.003
==== e(  33) =     6.87389 eV ==== 

    |psi|^2 = 0.000
==== e(  34) =     6.93523 eV ==== 

    |psi|^2 = 0.000
==== e(  35) =     8.61276 eV ==== 
     psi = 0.002*[#   7]+0.002*[#  16]
    |psi|^2 = 0.004
==== e(  36) =     8.61276 eV ==== 
     psi = 0.002*[#   7]+0.002*[#  16]
    |psi|^2 = 0.004
==== e(  37) =     8.77848 eV ==== 
     psi = 0.244*[#   8]+0.244*[#   9]+0.244*[#  17]+0.244*[#  18]
    |psi|^2 = 0.975
==== e(  38) =     8.95859 eV ==== 

    |psi|^2 = 0.001
==== e(  39) =     8.95859 eV ==== 

    |psi|^2 = 0.001
==== e(  40) =     9.17390 eV ==== 

    |psi|^2 = 0.000
==== e(  41) =     9.23791 eV ==== 

    |psi|^2 = 0.000
==== e(  42) =     9.45642 eV ==== 
     psi = 0.003*[#   7]+0.003*[#  16]
    |psi|^2 = 0.006
==== e(  43) =     9.45642 eV ==== 
     psi = 0.003*[#   7]+0.003*[#  16]
    |psi|^2 = 0.006
==== e(  44) =     9.85271 eV ==== 

    |psi|^2 = 0.000
==== e(  45) =    11.46276 eV ==== 
     psi = 0.006*[#   6]+0.006*[#  15]+0.003*[#   8]+0.003*[#   9]+0.003*[#  17]
          +0.003*[#  18]
    |psi|^2 = 0.024
==== e(  46) =    11.46276 eV ==== 
     psi = 0.006*[#   6]+0.006*[#  15]+0.003*[#   8]+0.003*[#   9]+0.003*[#  17]
          +0.003*[#  18]
    |psi|^2 = 0.024
==== e(  47) =    11.98731 eV ==== 

    |psi|^2 = 0.000
==== e(  48) =    11.98731 eV ==== 

    |psi|^2 = 0.000
==== e(  49) =    12.23017 eV ==== 

    |psi|^2 = 0.003
==== e(  50) =    12.23017 eV ==== 

    |psi|^2 = 0.003
==== e(  51) =    12.23973 eV ==== 

    |psi|^2 = 0.000
==== e(  52) =    12.68280 eV ==== 

    |psi|^2 = 0.000
==== e(  53) =    12.98723 eV ==== 

    |psi|^2 = 0.000
==== e(  54) =    12.98723 eV ==== 

    |psi|^2 = 0.000
==== e(  55) =    13.36038 eV ==== 

    |psi|^2 = 0.000
==== e(  56) =    14.24596 eV ==== 

    |psi|^2 = 0.002
==== e(  57) =    14.24596 eV ==== 

    |psi|^2 = 0.002
==== e(  58) =    14.30808 eV ==== 

    |psi|^2 = 0.000
==== e(  59) =    14.32346 eV ==== 

    |psi|^2 = 0.000
==== e(  60) =    14.32346 eV ==== 

    |psi|^2 = 0.000

Lowdin Charges: 

     Atom #   1: total charge =  13.9805, s =  1.4214, 
     Atom #   1: total charge =  13.9805, p =  2.5676, pz=  0.9595, px=  0.8040, py=  0.8040, 
     Atom #   1: total charge =  13.9805, d =  9.9915, dz2=  1.9985, dxz=  1.9994, dyz=  1.9994, dx2-y2=  1.9971, dxy=  1.9971, 
     Atom #   2: total charge =  13.9805, s =  1.4214, 
     Atom #   2: total charge =  13.9805, p =  2.5676, pz=  0.9595, px=  0.8040, py=  0.8040, 
     Atom #   2: total charge =  13.9805, d =  9.9915, dz2=  1.9985, dxz=  1.9994, dyz=  1.9994, dx2-y2=  1.9971, dxy=  1.9971, 
     Spilling Parameter:   0.0014

     PROJWFC      :   3m14.30s CPU   5m13.03s WALL


   This run was terminated on:   6:40:13  27Jun2024            

=------------------------------------------------------------------------------=
   JOB DONE.
=------------------------------------------------------------------------------=
