
     Program PWSCF v.7.2 starts on 26Jun2024 at 19:49:51 

     This program is part of the open-source Quantum ESPRESSO suite
     for quantum simulation of materials; please cite
         "P. Giannozzi et al., J. Phys.:Condens. Matter 21 395502 (2009);
         "P. Giannozzi et al., J. Phys.:Condens. Matter 29 465901 (2017);
         "P. Giannozzi et al., J. Chem. Phys. 152 154105 (2020);
          URL http://www.quantum-espresso.org", 
     in publications or presentations arising from this work. More details at
     http://www.quantum-espresso.org/quote

     Parallel version (MPI), running on     6 processors

     MPI processes distributed on     1 nodes
     3545 MiB available memory on the printing compute node when the environment starts

     Waiting for input...
     Reading input from standard input

     Current dimensions of program PWSCF are:
     Max number of different atomic species (ntypx) = 10
     Max number of k-points (npk) =  40000
     Max angular momentum in pseudopotentials (lmaxx) =  4

     Atomic positions and unit cell read from directory:
     ../tmp/stanene.save/
     Atomic positions from file used, from input discarded


     R & G space division:  proc/nbgrp/npool/nimage =       6
     Subspace diagonalization in iterative solution of the eigenvalue problem:
     a serial algorithm will be used


     Parallelization info
     --------------------
     sticks:   dense  smooth     PW     G-vecs:    dense   smooth      PW
     Min         431     214     61                75909    26818    4015
     Max         432     215     62                75924    26841    4025
     Sum        2587    1285    367               455489   160939   24117

     Using Slab Decomposition



     bravais-lattice index     =            4
     lattice parameter (alat)  =       8.8506  a.u.
     unit-cell volume          =    2563.9136 (a.u.)^3
     number of atoms/cell      =            2
     number of atomic types    =            1
     number of electrons       =        28.00
     number of Kohn-Sham states=           60
     kinetic-energy cutoff     =      60.0000  Ry
     charge density cutoff     =     480.0000  Ry
     Exchange-correlation= SLA  PW   PBE  PBE
                           (   1   4   3   4   0   0   0)

     celldm(1)=   8.850584  celldm(2)=   0.000000  celldm(3)=   4.270286
     celldm(4)=   0.000000  celldm(5)=   0.000000  celldm(6)=   0.000000

     crystal axes: (cart. coord. in units of alat)
               a(1) = (   1.000000   0.000000   0.000000 )  
               a(2) = (  -0.500000   0.866025   0.000000 )  
               a(3) = (   0.000000   0.000000   4.270286 )  

     reciprocal axes: (cart. coord. in units 2 pi/alat)
               b(1) = (  1.000000  0.577350 -0.000000 )  
               b(2) = (  0.000000  1.154701  0.000000 )  
               b(3) = (  0.000000 -0.000000  0.234176 )  


     PseudoPot. # 1 for Sn read from file:
     ../pseudo/Sn_pbe_v1.uspp.F.UPF
     MD5 check sum: 4cf58ce39ec5d5d420df3dd08604eb00
     Pseudo is Ultrasoft + core correction, Zval = 14.0
     Generated by new atomic code, or converted to UPF format
     Using radial grid of  891 points,  6 beta functions with: 
                l(1) =   0
                l(2) =   0
                l(3) =   1
                l(4) =   1
                l(5) =   2
                l(6) =   2
     Q(r) pseudized with  6 coefficients,  rinner =    1.200   1.200   1.200
                                                       1.200   1.200

     atomic species   valence    mass     pseudopotential
        Sn            14.00   118.71000     Sn( 1.00)

     24 Sym. Ops., with inversion, found


                                    s                        frac. trans.

      isym =  1     identity                                     

 cryst.   s( 1) = (     1          0          0      )
                  (     0          1          0      )
                  (     0          0          1      )

 cart.    s( 1) = (  1.0000000  0.0000000  0.0000000 )
                  (  0.0000000  1.0000000  0.0000000 )
                  (  0.0000000  0.0000000  1.0000000 )


      isym =  2     180 deg rotation - cart. axis [0,0,1]        

 cryst.   s( 2) = (    -1          0          0      )
                  (     0         -1          0      )
                  (     0          0          1      )

 cart.    s( 2) = ( -1.0000000  0.0000000  0.0000000 )
                  (  0.0000000 -1.0000000  0.0000000 )
                  (  0.0000000  0.0000000  1.0000000 )


      isym =  3     180 deg rotation - cart. axis [0,1,0]        

 cryst.   s( 3) = (    -1          0          0      )
                  (     1          1          0      )
                  (     0          0         -1      )

 cart.    s( 3) = ( -1.0000000  0.0000000  0.0000000 )
                  (  0.0000000  1.0000000  0.0000000 )
                  (  0.0000000  0.0000000 -1.0000000 )


      isym =  4     180 deg rotation - cart. axis [1,0,0]        

 cryst.   s( 4) = (     1          0          0      )
                  (    -1         -1          0      )
                  (     0          0         -1      )

 cart.    s( 4) = (  1.0000000  0.0000000  0.0000000 )
                  (  0.0000000 -1.0000000  0.0000000 )
                  (  0.0000000  0.0000000 -1.0000000 )


      isym =  5      60 deg rotation - cryst. axis [0,0,1]       

 cryst.   s( 5) = (     1          1          0      )
                  (    -1          0          0      )
                  (     0          0          1      )

 cart.    s( 5) = (  0.5000000 -0.8660254  0.0000000 )
                  (  0.8660254  0.5000000  0.0000000 )
                  (  0.0000000  0.0000000  1.0000000 )


      isym =  6      60 deg rotation - cryst. axis [0,0,-1]      

 cryst.   s( 6) = (     0         -1          0      )
                  (     1          1          0      )
                  (     0          0          1      )

 cart.    s( 6) = (  0.5000000  0.8660254  0.0000000 )
                  ( -0.8660254  0.5000000  0.0000000 )
                  (  0.0000000  0.0000000  1.0000000 )


      isym =  7     120 deg rotation - cryst. axis [0,0,1]       

 cryst.   s( 7) = (     0          1          0      )
                  (    -1         -1          0      )
                  (     0          0          1      )

 cart.    s( 7) = ( -0.5000000 -0.8660254  0.0000000 )
                  (  0.8660254 -0.5000000  0.0000000 )
                  (  0.0000000  0.0000000  1.0000000 )


      isym =  8     120 deg rotation - cryst. axis [0,0,-1]      

 cryst.   s( 8) = (    -1         -1          0      )
                  (     1          0          0      )
                  (     0          0          1      )

 cart.    s( 8) = ( -0.5000000  0.8660254  0.0000000 )
                  ( -0.8660254 -0.5000000  0.0000000 )
                  (  0.0000000  0.0000000  1.0000000 )


      isym =  9     180 deg rotation - cryst. axis [1,-1,0]      

 cryst.   s( 9) = (     0         -1          0      )
                  (    -1          0          0      )
                  (     0          0         -1      )

 cart.    s( 9) = (  0.5000000 -0.8660254  0.0000000 )
                  ( -0.8660254 -0.5000000  0.0000000 )
                  (  0.0000000  0.0000000 -1.0000000 )


      isym = 10     180 deg rotation - cryst. axis [2,1,0]       

 cryst.   s(10) = (     1          1          0      )
                  (     0         -1          0      )
                  (     0          0         -1      )

 cart.    s(10) = (  0.5000000  0.8660254  0.0000000 )
                  (  0.8660254 -0.5000000  0.0000000 )
                  (  0.0000000  0.0000000 -1.0000000 )


      isym = 11     180 deg rotation - cryst. axis [0,1,0]       

 cryst.   s(11) = (    -1         -1          0      )
                  (     0          1          0      )
                  (     0          0         -1      )

 cart.    s(11) = ( -0.5000000 -0.8660254  0.0000000 )
                  ( -0.8660254  0.5000000  0.0000000 )
                  (  0.0000000  0.0000000 -1.0000000 )


      isym = 12     180 deg rotation - cryst. axis [1,1,0]       

 cryst.   s(12) = (     0          1          0      )
                  (     1          0          0      )
                  (     0          0         -1      )

 cart.    s(12) = ( -0.5000000  0.8660254  0.0000000 )
                  (  0.8660254  0.5000000  0.0000000 )
                  (  0.0000000  0.0000000 -1.0000000 )


      isym = 13     inversion                                    

 cryst.   s(13) = (    -1          0          0      )
                  (     0         -1          0      )
                  (     0          0         -1      )

 cart.    s(13) = ( -1.0000000  0.0000000  0.0000000 )
                  (  0.0000000 -1.0000000  0.0000000 )
                  (  0.0000000  0.0000000 -1.0000000 )


      isym = 14     inv. 180 deg rotation - cart. axis [0,0,1]   

 cryst.   s(14) = (     1          0          0      )
                  (     0          1          0      )
                  (     0          0         -1      )

 cart.    s(14) = (  1.0000000  0.0000000  0.0000000 )
                  (  0.0000000  1.0000000  0.0000000 )
                  (  0.0000000  0.0000000 -1.0000000 )


      isym = 15     inv. 180 deg rotation - cart. axis [0,1,0]   

 cryst.   s(15) = (     1          0          0      )
                  (    -1         -1          0      )
                  (     0          0          1      )

 cart.    s(15) = (  1.0000000  0.0000000  0.0000000 )
                  (  0.0000000 -1.0000000  0.0000000 )
                  (  0.0000000  0.0000000  1.0000000 )


      isym = 16     inv. 180 deg rotation - cart. axis [1,0,0]   

 cryst.   s(16) = (    -1          0          0      )
                  (     1          1          0      )
                  (     0          0          1      )

 cart.    s(16) = ( -1.0000000  0.0000000  0.0000000 )
                  (  0.0000000  1.0000000  0.0000000 )
                  (  0.0000000  0.0000000  1.0000000 )


      isym = 17     inv.  60 deg rotation - cryst. axis [0,0,1]  

 cryst.   s(17) = (    -1         -1          0      )
                  (     1          0          0      )
                  (     0          0         -1      )

 cart.    s(17) = ( -0.5000000  0.8660254  0.0000000 )
                  ( -0.8660254 -0.5000000  0.0000000 )
                  (  0.0000000  0.0000000 -1.0000000 )


      isym = 18     inv.  60 deg rotation - cryst. axis [0,0,-1] 

 cryst.   s(18) = (     0          1          0      )
                  (    -1         -1          0      )
                  (     0          0         -1      )

 cart.    s(18) = ( -0.5000000 -0.8660254  0.0000000 )
                  (  0.8660254 -0.5000000  0.0000000 )
                  (  0.0000000  0.0000000 -1.0000000 )


      isym = 19     inv. 120 deg rotation - cryst. axis [0,0,1]  

 cryst.   s(19) = (     0         -1          0      )
                  (     1          1          0      )
                  (     0          0         -1      )

 cart.    s(19) = (  0.5000000  0.8660254  0.0000000 )
                  ( -0.8660254  0.5000000  0.0000000 )
                  (  0.0000000  0.0000000 -1.0000000 )


      isym = 20     inv. 120 deg rotation - cryst. axis [0,0,-1] 

 cryst.   s(20) = (     1          1          0      )
                  (    -1          0          0      )
                  (     0          0         -1      )

 cart.    s(20) = (  0.5000000 -0.8660254  0.0000000 )
                  (  0.8660254  0.5000000  0.0000000 )
                  (  0.0000000  0.0000000 -1.0000000 )


      isym = 21     inv. 180 deg rotation - cryst. axis [1,-1,0] 

 cryst.   s(21) = (     0          1          0      )
                  (     1          0          0      )
                  (     0          0          1      )

 cart.    s(21) = ( -0.5000000  0.8660254  0.0000000 )
                  (  0.8660254  0.5000000  0.0000000 )
                  (  0.0000000  0.0000000  1.0000000 )


      isym = 22     inv. 180 deg rotation - cryst. axis [2,1,0]  

 cryst.   s(22) = (    -1         -1          0      )
                  (     0          1          0      )
                  (     0          0          1      )

 cart.    s(22) = ( -0.5000000 -0.8660254  0.0000000 )
                  ( -0.8660254  0.5000000  0.0000000 )
                  (  0.0000000  0.0000000  1.0000000 )


      isym = 23     inv. 180 deg rotation - cryst. axis [0,1,0]  

 cryst.   s(23) = (     1          1          0      )
                  (     0         -1          0      )
                  (     0          0          1      )

 cart.    s(23) = (  0.5000000  0.8660254  0.0000000 )
                  (  0.8660254 -0.5000000  0.0000000 )
                  (  0.0000000  0.0000000  1.0000000 )


      isym = 24     inv. 180 deg rotation - cryst. axis [1,1,0]  

 cryst.   s(24) = (     0         -1          0      )
                  (    -1          0          0      )
                  (     0          0          1      )

 cart.    s(24) = (  0.5000000 -0.8660254  0.0000000 )
                  ( -0.8660254 -0.5000000  0.0000000 )
                  (  0.0000000  0.0000000  1.0000000 )


     point group D_6h(6/mmm)
     there are 12 classes
     the character table:

       E     2C6   2C3   C2    3C2'  3C2'' i     2S3   2S6   s_h   3s_d  3s_v 
A_1g   1.00  1.00  1.00  1.00  1.00  1.00  1.00  1.00  1.00  1.00  1.00  1.00
A_2g   1.00  1.00  1.00  1.00 -1.00 -1.00  1.00  1.00  1.00  1.00 -1.00 -1.00
B_1g   1.00 -1.00  1.00 -1.00  1.00 -1.00  1.00 -1.00  1.00 -1.00  1.00 -1.00
B_2g   1.00 -1.00  1.00 -1.00 -1.00  1.00  1.00 -1.00  1.00 -1.00 -1.00  1.00
E_1g   2.00  1.00 -1.00 -2.00  0.00  0.00  2.00  1.00 -1.00 -2.00  0.00  0.00
E_2g   2.00 -1.00 -1.00  2.00  0.00  0.00  2.00 -1.00 -1.00  2.00  0.00  0.00
A_1u   1.00  1.00  1.00  1.00  1.00  1.00 -1.00 -1.00 -1.00 -1.00 -1.00 -1.00
A_2u   1.00  1.00  1.00  1.00 -1.00 -1.00 -1.00 -1.00 -1.00 -1.00  1.00  1.00
B_1u   1.00 -1.00  1.00 -1.00  1.00 -1.00 -1.00  1.00 -1.00  1.00 -1.00  1.00
B_2u   1.00 -1.00  1.00 -1.00 -1.00  1.00 -1.00  1.00 -1.00  1.00  1.00 -1.00
E_1u   2.00  1.00 -1.00 -2.00  0.00  0.00 -2.00 -1.00  1.00  2.00  0.00  0.00
E_2u   2.00 -1.00 -1.00  2.00  0.00  0.00 -2.00  1.00  1.00 -2.00  0.00  0.00

     the symmetry operations in each class and the name of the first element:

     E        1
          identity                                               
     2C6      5    6
           60 deg rotation - cryst. axis [0,0,1]                 
     2C3      7    8
          120 deg rotation - cryst. axis [0,0,1]                 
     C2       2
          180 deg rotation - cart. axis [0,0,1]                  
     3C2'     4   12   11
          180 deg rotation - cart. axis [1,0,0]                  
     3C2''    3    9   10
          180 deg rotation - cart. axis [0,1,0]                  
     i       13
          inversion                                              
     2S3     17   18
          inv.  60 deg rotation - cryst. axis [0,0,1]            
     2S6     19   20
          inv. 120 deg rotation - cryst. axis [0,0,1]            
     s_h     14
          inv. 180 deg rotation - cart. axis [0,0,1]             
     3s_d    16   24   23
          inv. 180 deg rotation - cart. axis [1,0,0]             
     3s_v    15   21   22
          inv. 180 deg rotation - cart. axis [0,1,0]             

   Cartesian axes

     site n.     atom                  positions (alat units)
         1           Sn  tau(   1) = (   0.0000000   0.5773503   2.1351428  )
         2           Sn  tau(   2) = (   0.5000000   0.2886751   2.1351428  )

   Crystallographic axes

     site n.     atom                  positions (cryst. coord.)
         1           Sn  tau(   1) = (  0.3333333  0.6666667  0.5000000  )
         2           Sn  tau(   2) = (  0.6666667  0.3333333  0.5000000  )

     number of k points=   331 (tetrahedron method)
                       cart. coord. in units 2pi/alat
        k(    1) = (   0.0000000   0.0000000   0.0000000), wk =   0.0005556
        k(    2) = (   0.0000000   0.0192450   0.0000000), wk =   0.0033333
        k(    3) = (   0.0000000   0.0384900   0.0000000), wk =   0.0033333
        k(    4) = (   0.0000000   0.0577350   0.0000000), wk =   0.0033333
        k(    5) = (   0.0000000   0.0769800   0.0000000), wk =   0.0033333
        k(    6) = (   0.0000000   0.0962250   0.0000000), wk =   0.0033333
        k(    7) = (   0.0000000   0.1154701   0.0000000), wk =   0.0033333
        k(    8) = (   0.0000000   0.1347151   0.0000000), wk =   0.0033333
        k(    9) = (   0.0000000   0.1539601   0.0000000), wk =   0.0033333
        k(   10) = (   0.0000000   0.1732051   0.0000000), wk =   0.0033333
        k(   11) = (   0.0000000   0.1924501   0.0000000), wk =   0.0033333
        k(   12) = (   0.0000000   0.2116951   0.0000000), wk =   0.0033333
        k(   13) = (   0.0000000   0.2309401   0.0000000), wk =   0.0033333
        k(   14) = (   0.0000000   0.2501851   0.0000000), wk =   0.0033333
        k(   15) = (   0.0000000   0.2694301   0.0000000), wk =   0.0033333
        k(   16) = (   0.0000000   0.2886751   0.0000000), wk =   0.0033333
        k(   17) = (   0.0000000   0.3079201   0.0000000), wk =   0.0033333
        k(   18) = (   0.0000000   0.3271652   0.0000000), wk =   0.0033333
        k(   19) = (   0.0000000   0.3464102   0.0000000), wk =   0.0033333
        k(   20) = (   0.0000000   0.3656552   0.0000000), wk =   0.0033333
        k(   21) = (   0.0000000   0.3849002   0.0000000), wk =   0.0033333
        k(   22) = (   0.0000000   0.4041452   0.0000000), wk =   0.0033333
        k(   23) = (   0.0000000   0.4233902   0.0000000), wk =   0.0033333
        k(   24) = (   0.0000000   0.4426352   0.0000000), wk =   0.0033333
        k(   25) = (   0.0000000   0.4618802   0.0000000), wk =   0.0033333
        k(   26) = (   0.0000000   0.4811252   0.0000000), wk =   0.0033333
        k(   27) = (   0.0000000   0.5003702   0.0000000), wk =   0.0033333
        k(   28) = (   0.0000000   0.5196152   0.0000000), wk =   0.0033333
        k(   29) = (   0.0000000   0.5388603   0.0000000), wk =   0.0033333
        k(   30) = (   0.0000000   0.5581053   0.0000000), wk =   0.0033333
        k(   31) = (   0.0000000  -0.5773503   0.0000000), wk =   0.0016667
        k(   32) = (   0.0166667   0.0288675   0.0000000), wk =   0.0033333
        k(   33) = (   0.0166667   0.0481125   0.0000000), wk =   0.0066667
        k(   34) = (   0.0166667   0.0673575   0.0000000), wk =   0.0066667
        k(   35) = (   0.0166667   0.0866025   0.0000000), wk =   0.0066667
        k(   36) = (   0.0166667   0.1058475   0.0000000), wk =   0.0066667
        k(   37) = (   0.0166667   0.1250926   0.0000000), wk =   0.0066667
        k(   38) = (   0.0166667   0.1443376   0.0000000), wk =   0.0066667
        k(   39) = (   0.0166667   0.1635826   0.0000000), wk =   0.0066667
        k(   40) = (   0.0166667   0.1828276   0.0000000), wk =   0.0066667
        k(   41) = (   0.0166667   0.2020726   0.0000000), wk =   0.0066667
        k(   42) = (   0.0166667   0.2213176   0.0000000), wk =   0.0066667
        k(   43) = (   0.0166667   0.2405626   0.0000000), wk =   0.0066667
        k(   44) = (   0.0166667   0.2598076   0.0000000), wk =   0.0066667
        k(   45) = (   0.0166667   0.2790526   0.0000000), wk =   0.0066667
        k(   46) = (   0.0166667   0.2982976   0.0000000), wk =   0.0066667
        k(   47) = (   0.0166667   0.3175426   0.0000000), wk =   0.0066667
        k(   48) = (   0.0166667   0.3367877   0.0000000), wk =   0.0066667
        k(   49) = (   0.0166667   0.3560327   0.0000000), wk =   0.0066667
        k(   50) = (   0.0166667   0.3752777   0.0000000), wk =   0.0066667
        k(   51) = (   0.0166667   0.3945227   0.0000000), wk =   0.0066667
        k(   52) = (   0.0166667   0.4137677   0.0000000), wk =   0.0066667
        k(   53) = (   0.0166667   0.4330127   0.0000000), wk =   0.0066667
        k(   54) = (   0.0166667   0.4522577   0.0000000), wk =   0.0066667
        k(   55) = (   0.0166667   0.4715027   0.0000000), wk =   0.0066667
        k(   56) = (   0.0166667   0.4907477   0.0000000), wk =   0.0066667
        k(   57) = (   0.0166667   0.5099927   0.0000000), wk =   0.0066667
        k(   58) = (   0.0166667   0.5292377   0.0000000), wk =   0.0066667
        k(   59) = (   0.0166667   0.5484828   0.0000000), wk =   0.0066667
        k(   60) = (   0.0166667   0.5677278   0.0000000), wk =   0.0066667
        k(   61) = (   0.0333333   0.0577350   0.0000000), wk =   0.0033333
        k(   62) = (   0.0333333   0.0769800   0.0000000), wk =   0.0066667
        k(   63) = (   0.0333333   0.0962250   0.0000000), wk =   0.0066667
        k(   64) = (   0.0333333   0.1154701   0.0000000), wk =   0.0066667
        k(   65) = (   0.0333333   0.1347151   0.0000000), wk =   0.0066667
        k(   66) = (   0.0333333   0.1539601   0.0000000), wk =   0.0066667
        k(   67) = (   0.0333333   0.1732051   0.0000000), wk =   0.0066667
        k(   68) = (   0.0333333   0.1924501   0.0000000), wk =   0.0066667
        k(   69) = (   0.0333333   0.2116951   0.0000000), wk =   0.0066667
        k(   70) = (   0.0333333   0.2309401   0.0000000), wk =   0.0066667
        k(   71) = (   0.0333333   0.2501851   0.0000000), wk =   0.0066667
        k(   72) = (   0.0333333   0.2694301   0.0000000), wk =   0.0066667
        k(   73) = (   0.0333333   0.2886751   0.0000000), wk =   0.0066667
        k(   74) = (   0.0333333   0.3079201   0.0000000), wk =   0.0066667
        k(   75) = (   0.0333333   0.3271652   0.0000000), wk =   0.0066667
        k(   76) = (   0.0333333   0.3464102   0.0000000), wk =   0.0066667
        k(   77) = (   0.0333333   0.3656552   0.0000000), wk =   0.0066667
        k(   78) = (   0.0333333   0.3849002   0.0000000), wk =   0.0066667
        k(   79) = (   0.0333333   0.4041452   0.0000000), wk =   0.0066667
        k(   80) = (   0.0333333   0.4233902   0.0000000), wk =   0.0066667
        k(   81) = (   0.0333333   0.4426352   0.0000000), wk =   0.0066667
        k(   82) = (   0.0333333   0.4618802   0.0000000), wk =   0.0066667
        k(   83) = (   0.0333333   0.4811252   0.0000000), wk =   0.0066667
        k(   84) = (   0.0333333   0.5003702   0.0000000), wk =   0.0066667
        k(   85) = (   0.0333333   0.5196152   0.0000000), wk =   0.0066667
        k(   86) = (   0.0333333   0.5388603   0.0000000), wk =   0.0066667
        k(   87) = (   0.0333333   0.5581053   0.0000000), wk =   0.0066667
        k(   88) = (   0.0333333   0.5773503   0.0000000), wk =   0.0033333
        k(   89) = (   0.0500000   0.0866025   0.0000000), wk =   0.0033333
        k(   90) = (   0.0500000   0.1058475   0.0000000), wk =   0.0066667
        k(   91) = (   0.0500000   0.1250926   0.0000000), wk =   0.0066667
        k(   92) = (   0.0500000   0.1443376   0.0000000), wk =   0.0066667
        k(   93) = (   0.0500000   0.1635826   0.0000000), wk =   0.0066667
        k(   94) = (   0.0500000   0.1828276   0.0000000), wk =   0.0066667
        k(   95) = (   0.0500000   0.2020726   0.0000000), wk =   0.0066667
        k(   96) = (   0.0500000   0.2213176   0.0000000), wk =   0.0066667
        k(   97) = (   0.0500000   0.2405626   0.0000000), wk =   0.0066667
        k(   98) = (   0.0500000   0.2598076   0.0000000), wk =   0.0066667
        k(   99) = (   0.0500000   0.2790526   0.0000000), wk =   0.0066667
        k(  100) = (   0.0500000   0.2982976   0.0000000), wk =   0.0066667
        k(  101) = (   0.0500000   0.3175426   0.0000000), wk =   0.0066667
        k(  102) = (   0.0500000   0.3367877   0.0000000), wk =   0.0066667
        k(  103) = (   0.0500000   0.3560327   0.0000000), wk =   0.0066667
        k(  104) = (   0.0500000   0.3752777   0.0000000), wk =   0.0066667
        k(  105) = (   0.0500000   0.3945227   0.0000000), wk =   0.0066667
        k(  106) = (   0.0500000   0.4137677   0.0000000), wk =   0.0066667
        k(  107) = (   0.0500000   0.4330127   0.0000000), wk =   0.0066667
        k(  108) = (   0.0500000   0.4522577   0.0000000), wk =   0.0066667
        k(  109) = (   0.0500000   0.4715027   0.0000000), wk =   0.0066667
        k(  110) = (   0.0500000   0.4907477   0.0000000), wk =   0.0066667
        k(  111) = (   0.0500000   0.5099927   0.0000000), wk =   0.0066667
        k(  112) = (   0.0500000   0.5292377   0.0000000), wk =   0.0066667
        k(  113) = (   0.0500000   0.5484828   0.0000000), wk =   0.0066667
        k(  114) = (   0.0500000   0.5677278   0.0000000), wk =   0.0066667
        k(  115) = (   0.0666667   0.1154701   0.0000000), wk =   0.0033333
        k(  116) = (   0.0666667   0.1347151   0.0000000), wk =   0.0066667
        k(  117) = (   0.0666667   0.1539601   0.0000000), wk =   0.0066667
        k(  118) = (   0.0666667   0.1732051   0.0000000), wk =   0.0066667
        k(  119) = (   0.0666667   0.1924501   0.0000000), wk =   0.0066667
        k(  120) = (   0.0666667   0.2116951   0.0000000), wk =   0.0066667
        k(  121) = (   0.0666667   0.2309401   0.0000000), wk =   0.0066667
        k(  122) = (   0.0666667   0.2501851   0.0000000), wk =   0.0066667
        k(  123) = (   0.0666667   0.2694301   0.0000000), wk =   0.0066667
        k(  124) = (   0.0666667   0.2886751   0.0000000), wk =   0.0066667
        k(  125) = (   0.0666667   0.3079201   0.0000000), wk =   0.0066667
        k(  126) = (   0.0666667   0.3271652   0.0000000), wk =   0.0066667
        k(  127) = (   0.0666667   0.3464102   0.0000000), wk =   0.0066667
        k(  128) = (   0.0666667   0.3656552   0.0000000), wk =   0.0066667
        k(  129) = (   0.0666667   0.3849002   0.0000000), wk =   0.0066667
        k(  130) = (   0.0666667   0.4041452   0.0000000), wk =   0.0066667
        k(  131) = (   0.0666667   0.4233902   0.0000000), wk =   0.0066667
        k(  132) = (   0.0666667   0.4426352   0.0000000), wk =   0.0066667
        k(  133) = (   0.0666667   0.4618802   0.0000000), wk =   0.0066667
        k(  134) = (   0.0666667   0.4811252   0.0000000), wk =   0.0066667
        k(  135) = (   0.0666667   0.5003702   0.0000000), wk =   0.0066667
        k(  136) = (   0.0666667   0.5196152   0.0000000), wk =   0.0066667
        k(  137) = (   0.0666667   0.5388603   0.0000000), wk =   0.0066667
        k(  138) = (   0.0666667   0.5581053   0.0000000), wk =   0.0066667
        k(  139) = (   0.0666667   0.5773503   0.0000000), wk =   0.0033333
        k(  140) = (   0.0833333   0.1443376   0.0000000), wk =   0.0033333
        k(  141) = (   0.0833333   0.1635826   0.0000000), wk =   0.0066667
        k(  142) = (   0.0833333   0.1828276   0.0000000), wk =   0.0066667
        k(  143) = (   0.0833333   0.2020726   0.0000000), wk =   0.0066667
        k(  144) = (   0.0833333   0.2213176   0.0000000), wk =   0.0066667
        k(  145) = (   0.0833333   0.2405626   0.0000000), wk =   0.0066667
        k(  146) = (   0.0833333   0.2598076   0.0000000), wk =   0.0066667
        k(  147) = (   0.0833333   0.2790526   0.0000000), wk =   0.0066667
        k(  148) = (   0.0833333   0.2982976   0.0000000), wk =   0.0066667
        k(  149) = (   0.0833333   0.3175426   0.0000000), wk =   0.0066667
        k(  150) = (   0.0833333   0.3367877   0.0000000), wk =   0.0066667
        k(  151) = (   0.0833333   0.3560327   0.0000000), wk =   0.0066667
        k(  152) = (   0.0833333   0.3752777   0.0000000), wk =   0.0066667
        k(  153) = (   0.0833333   0.3945227   0.0000000), wk =   0.0066667
        k(  154) = (   0.0833333   0.4137677   0.0000000), wk =   0.0066667
        k(  155) = (   0.0833333   0.4330127   0.0000000), wk =   0.0066667
        k(  156) = (   0.0833333   0.4522577   0.0000000), wk =   0.0066667
        k(  157) = (   0.0833333   0.4715027   0.0000000), wk =   0.0066667
        k(  158) = (   0.0833333   0.4907477   0.0000000), wk =   0.0066667
        k(  159) = (   0.0833333   0.5099927   0.0000000), wk =   0.0066667
        k(  160) = (   0.0833333   0.5292377   0.0000000), wk =   0.0066667
        k(  161) = (   0.0833333   0.5484828   0.0000000), wk =   0.0066667
        k(  162) = (   0.0833333   0.5677278   0.0000000), wk =   0.0066667
        k(  163) = (   0.1000000   0.1732051   0.0000000), wk =   0.0033333
        k(  164) = (   0.1000000   0.1924501   0.0000000), wk =   0.0066667
        k(  165) = (   0.1000000   0.2116951   0.0000000), wk =   0.0066667
        k(  166) = (   0.1000000   0.2309401   0.0000000), wk =   0.0066667
        k(  167) = (   0.1000000   0.2501851   0.0000000), wk =   0.0066667
        k(  168) = (   0.1000000   0.2694301   0.0000000), wk =   0.0066667
        k(  169) = (   0.1000000   0.2886751   0.0000000), wk =   0.0066667
        k(  170) = (   0.1000000   0.3079201   0.0000000), wk =   0.0066667
        k(  171) = (   0.1000000   0.3271652   0.0000000), wk =   0.0066667
        k(  172) = (   0.1000000   0.3464102   0.0000000), wk =   0.0066667
        k(  173) = (   0.1000000   0.3656552   0.0000000), wk =   0.0066667
        k(  174) = (   0.1000000   0.3849002   0.0000000), wk =   0.0066667
        k(  175) = (   0.1000000   0.4041452   0.0000000), wk =   0.0066667
        k(  176) = (   0.1000000   0.4233902   0.0000000), wk =   0.0066667
        k(  177) = (   0.1000000   0.4426352   0.0000000), wk =   0.0066667
        k(  178) = (   0.1000000   0.4618802   0.0000000), wk =   0.0066667
        k(  179) = (   0.1000000   0.4811252   0.0000000), wk =   0.0066667
        k(  180) = (   0.1000000   0.5003702   0.0000000), wk =   0.0066667
        k(  181) = (   0.1000000   0.5196152   0.0000000), wk =   0.0066667
        k(  182) = (   0.1000000   0.5388603   0.0000000), wk =   0.0066667
        k(  183) = (   0.1000000   0.5581053   0.0000000), wk =   0.0066667
        k(  184) = (   0.1000000   0.5773503   0.0000000), wk =   0.0033333
        k(  185) = (   0.1166667   0.2020726   0.0000000), wk =   0.0033333
        k(  186) = (   0.1166667   0.2213176   0.0000000), wk =   0.0066667
        k(  187) = (   0.1166667   0.2405626   0.0000000), wk =   0.0066667
        k(  188) = (   0.1166667   0.2598076   0.0000000), wk =   0.0066667
        k(  189) = (   0.1166667   0.2790526   0.0000000), wk =   0.0066667
        k(  190) = (   0.1166667   0.2982976   0.0000000), wk =   0.0066667
        k(  191) = (   0.1166667   0.3175426   0.0000000), wk =   0.0066667
        k(  192) = (   0.1166667   0.3367877   0.0000000), wk =   0.0066667
        k(  193) = (   0.1166667   0.3560327   0.0000000), wk =   0.0066667
        k(  194) = (   0.1166667   0.3752777   0.0000000), wk =   0.0066667
        k(  195) = (   0.1166667   0.3945227   0.0000000), wk =   0.0066667
        k(  196) = (   0.1166667   0.4137677   0.0000000), wk =   0.0066667
        k(  197) = (   0.1166667   0.4330127   0.0000000), wk =   0.0066667
        k(  198) = (   0.1166667   0.4522577   0.0000000), wk =   0.0066667
        k(  199) = (   0.1166667   0.4715027   0.0000000), wk =   0.0066667
        k(  200) = (   0.1166667   0.4907477   0.0000000), wk =   0.0066667
        k(  201) = (   0.1166667   0.5099927   0.0000000), wk =   0.0066667
        k(  202) = (   0.1166667   0.5292377   0.0000000), wk =   0.0066667
        k(  203) = (   0.1166667   0.5484828   0.0000000), wk =   0.0066667
        k(  204) = (   0.1166667   0.5677278   0.0000000), wk =   0.0066667
        k(  205) = (   0.1333333   0.2309401   0.0000000), wk =   0.0033333
        k(  206) = (   0.1333333   0.2501851   0.0000000), wk =   0.0066667
        k(  207) = (   0.1333333   0.2694301   0.0000000), wk =   0.0066667
        k(  208) = (   0.1333333   0.2886751   0.0000000), wk =   0.0066667
        k(  209) = (   0.1333333   0.3079201   0.0000000), wk =   0.0066667
        k(  210) = (   0.1333333   0.3271652   0.0000000), wk =   0.0066667
        k(  211) = (   0.1333333   0.3464102   0.0000000), wk =   0.0066667
        k(  212) = (   0.1333333   0.3656552   0.0000000), wk =   0.0066667
        k(  213) = (   0.1333333   0.3849002   0.0000000), wk =   0.0066667
        k(  214) = (   0.1333333   0.4041452   0.0000000), wk =   0.0066667
        k(  215) = (   0.1333333   0.4233902   0.0000000), wk =   0.0066667
        k(  216) = (   0.1333333   0.4426352   0.0000000), wk =   0.0066667
        k(  217) = (   0.1333333   0.4618802   0.0000000), wk =   0.0066667
        k(  218) = (   0.1333333   0.4811252   0.0000000), wk =   0.0066667
        k(  219) = (   0.1333333   0.5003702   0.0000000), wk =   0.0066667
        k(  220) = (   0.1333333   0.5196152   0.0000000), wk =   0.0066667
        k(  221) = (   0.1333333   0.5388603   0.0000000), wk =   0.0066667
        k(  222) = (   0.1333333   0.5581053   0.0000000), wk =   0.0066667
        k(  223) = (   0.1333333   0.5773503   0.0000000), wk =   0.0033333
        k(  224) = (   0.1500000   0.2598076   0.0000000), wk =   0.0033333
        k(  225) = (   0.1500000   0.2790526   0.0000000), wk =   0.0066667
        k(  226) = (   0.1500000   0.2982976   0.0000000), wk =   0.0066667
        k(  227) = (   0.1500000   0.3175426   0.0000000), wk =   0.0066667
        k(  228) = (   0.1500000   0.3367877   0.0000000), wk =   0.0066667
        k(  229) = (   0.1500000   0.3560327   0.0000000), wk =   0.0066667
        k(  230) = (   0.1500000   0.3752777   0.0000000), wk =   0.0066667
        k(  231) = (   0.1500000   0.3945227   0.0000000), wk =   0.0066667
        k(  232) = (   0.1500000   0.4137677   0.0000000), wk =   0.0066667
        k(  233) = (   0.1500000   0.4330127   0.0000000), wk =   0.0066667
        k(  234) = (   0.1500000   0.4522577   0.0000000), wk =   0.0066667
        k(  235) = (   0.1500000   0.4715027   0.0000000), wk =   0.0066667
        k(  236) = (   0.1500000   0.4907477   0.0000000), wk =   0.0066667
        k(  237) = (   0.1500000   0.5099927   0.0000000), wk =   0.0066667
        k(  238) = (   0.1500000   0.5292377   0.0000000), wk =   0.0066667
        k(  239) = (   0.1500000   0.5484828   0.0000000), wk =   0.0066667
        k(  240) = (   0.1500000   0.5677278   0.0000000), wk =   0.0066667
        k(  241) = (   0.1666667   0.2886751   0.0000000), wk =   0.0033333
        k(  242) = (   0.1666667   0.3079201   0.0000000), wk =   0.0066667
        k(  243) = (   0.1666667   0.3271652   0.0000000), wk =   0.0066667
        k(  244) = (   0.1666667   0.3464102   0.0000000), wk =   0.0066667
        k(  245) = (   0.1666667   0.3656552   0.0000000), wk =   0.0066667
        k(  246) = (   0.1666667   0.3849002   0.0000000), wk =   0.0066667
        k(  247) = (   0.1666667   0.4041452   0.0000000), wk =   0.0066667
        k(  248) = (   0.1666667   0.4233902   0.0000000), wk =   0.0066667
        k(  249) = (   0.1666667   0.4426352   0.0000000), wk =   0.0066667
        k(  250) = (   0.1666667   0.4618802   0.0000000), wk =   0.0066667
        k(  251) = (   0.1666667   0.4811252   0.0000000), wk =   0.0066667
        k(  252) = (   0.1666667   0.5003702   0.0000000), wk =   0.0066667
        k(  253) = (   0.1666667   0.5196152   0.0000000), wk =   0.0066667
        k(  254) = (   0.1666667   0.5388603   0.0000000), wk =   0.0066667
        k(  255) = (   0.1666667   0.5581053   0.0000000), wk =   0.0066667
        k(  256) = (   0.1666667   0.5773503   0.0000000), wk =   0.0033333
        k(  257) = (   0.1833333   0.3175426   0.0000000), wk =   0.0033333
        k(  258) = (   0.1833333   0.3367877   0.0000000), wk =   0.0066667
        k(  259) = (   0.1833333   0.3560327   0.0000000), wk =   0.0066667
        k(  260) = (   0.1833333   0.3752777   0.0000000), wk =   0.0066667
        k(  261) = (   0.1833333   0.3945227   0.0000000), wk =   0.0066667
        k(  262) = (   0.1833333   0.4137677   0.0000000), wk =   0.0066667
        k(  263) = (   0.1833333   0.4330127   0.0000000), wk =   0.0066667
        k(  264) = (   0.1833333   0.4522577   0.0000000), wk =   0.0066667
        k(  265) = (   0.1833333   0.4715027   0.0000000), wk =   0.0066667
        k(  266) = (   0.1833333   0.4907477   0.0000000), wk =   0.0066667
        k(  267) = (   0.1833333   0.5099927   0.0000000), wk =   0.0066667
        k(  268) = (   0.1833333   0.5292377   0.0000000), wk =   0.0066667
        k(  269) = (   0.1833333   0.5484828   0.0000000), wk =   0.0066667
        k(  270) = (   0.1833333   0.5677278   0.0000000), wk =   0.0066667
        k(  271) = (   0.2000000   0.3464102   0.0000000), wk =   0.0033333
        k(  272) = (   0.2000000   0.3656552   0.0000000), wk =   0.0066667
        k(  273) = (   0.2000000   0.3849002   0.0000000), wk =   0.0066667
        k(  274) = (   0.2000000   0.4041452   0.0000000), wk =   0.0066667
        k(  275) = (   0.2000000   0.4233902   0.0000000), wk =   0.0066667
        k(  276) = (   0.2000000   0.4426352   0.0000000), wk =   0.0066667
        k(  277) = (   0.2000000   0.4618802   0.0000000), wk =   0.0066667
        k(  278) = (   0.2000000   0.4811252   0.0000000), wk =   0.0066667
        k(  279) = (   0.2000000   0.5003702   0.0000000), wk =   0.0066667
        k(  280) = (   0.2000000   0.5196152   0.0000000), wk =   0.0066667
        k(  281) = (   0.2000000   0.5388603   0.0000000), wk =   0.0066667
        k(  282) = (   0.2000000   0.5581053   0.0000000), wk =   0.0066667
        k(  283) = (   0.2000000   0.5773503   0.0000000), wk =   0.0033333
        k(  284) = (   0.2166667   0.3752777   0.0000000), wk =   0.0033333
        k(  285) = (   0.2166667   0.3945227   0.0000000), wk =   0.0066667
        k(  286) = (   0.2166667   0.4137677   0.0000000), wk =   0.0066667
        k(  287) = (   0.2166667   0.4330127   0.0000000), wk =   0.0066667
        k(  288) = (   0.2166667   0.4522577   0.0000000), wk =   0.0066667
        k(  289) = (   0.2166667   0.4715027   0.0000000), wk =   0.0066667
        k(  290) = (   0.2166667   0.4907477   0.0000000), wk =   0.0066667
        k(  291) = (   0.2166667   0.5099927   0.0000000), wk =   0.0066667
        k(  292) = (   0.2166667   0.5292377   0.0000000), wk =   0.0066667
        k(  293) = (   0.2166667   0.5484828   0.0000000), wk =   0.0066667
        k(  294) = (   0.2166667   0.5677278   0.0000000), wk =   0.0066667
        k(  295) = (   0.2333333   0.4041452   0.0000000), wk =   0.0033333
        k(  296) = (   0.2333333   0.4233902   0.0000000), wk =   0.0066667
        k(  297) = (   0.2333333   0.4426352   0.0000000), wk =   0.0066667
        k(  298) = (   0.2333333   0.4618802   0.0000000), wk =   0.0066667
        k(  299) = (   0.2333333   0.4811252   0.0000000), wk =   0.0066667
        k(  300) = (   0.2333333   0.5003702   0.0000000), wk =   0.0066667
        k(  301) = (   0.2333333   0.5196152   0.0000000), wk =   0.0066667
        k(  302) = (   0.2333333   0.5388603   0.0000000), wk =   0.0066667
        k(  303) = (   0.2333333   0.5581053   0.0000000), wk =   0.0066667
        k(  304) = (   0.2333333   0.5773503   0.0000000), wk =   0.0033333
        k(  305) = (   0.2500000   0.4330127   0.0000000), wk =   0.0033333
        k(  306) = (   0.2500000   0.4522577   0.0000000), wk =   0.0066667
        k(  307) = (   0.2500000   0.4715027   0.0000000), wk =   0.0066667
        k(  308) = (   0.2500000   0.4907477   0.0000000), wk =   0.0066667
        k(  309) = (   0.2500000   0.5099927   0.0000000), wk =   0.0066667
        k(  310) = (   0.2500000   0.5292377   0.0000000), wk =   0.0066667
        k(  311) = (   0.2500000   0.5484828   0.0000000), wk =   0.0066667
        k(  312) = (   0.2500000   0.5677278   0.0000000), wk =   0.0066667
        k(  313) = (   0.2666667   0.4618802   0.0000000), wk =   0.0033333
        k(  314) = (   0.2666667   0.4811252   0.0000000), wk =   0.0066667
        k(  315) = (   0.2666667   0.5003702   0.0000000), wk =   0.0066667
        k(  316) = (   0.2666667   0.5196152   0.0000000), wk =   0.0066667
        k(  317) = (   0.2666667   0.5388603   0.0000000), wk =   0.0066667
        k(  318) = (   0.2666667   0.5581053   0.0000000), wk =   0.0066667
        k(  319) = (   0.2666667   0.5773503   0.0000000), wk =   0.0033333
        k(  320) = (   0.2833333   0.4907477   0.0000000), wk =   0.0033333
        k(  321) = (   0.2833333   0.5099927   0.0000000), wk =   0.0066667
        k(  322) = (   0.2833333   0.5292377   0.0000000), wk =   0.0066667
        k(  323) = (   0.2833333   0.5484828   0.0000000), wk =   0.0066667
        k(  324) = (   0.2833333   0.5677278   0.0000000), wk =   0.0066667
        k(  325) = (   0.3000000   0.5196152   0.0000000), wk =   0.0033333
        k(  326) = (   0.3000000   0.5388603   0.0000000), wk =   0.0066667
        k(  327) = (   0.3000000   0.5581053   0.0000000), wk =   0.0066667
        k(  328) = (   0.3000000   0.5773503   0.0000000), wk =   0.0033333
        k(  329) = (   0.3166667   0.5484828   0.0000000), wk =   0.0033333
        k(  330) = (   0.3166667   0.5677278   0.0000000), wk =   0.0066667
        k(  331) = (   0.3333333   0.5773503   0.0000000), wk =   0.0011111

                       cryst. coord.
        k(    1) = (   0.0000000   0.0000000   0.0000000), wk =   0.0005556
        k(    2) = (   0.0000000   0.0166667   0.0000000), wk =   0.0033333
        k(    3) = (   0.0000000   0.0333333   0.0000000), wk =   0.0033333
        k(    4) = (   0.0000000   0.0500000   0.0000000), wk =   0.0033333
        k(    5) = (   0.0000000   0.0666667   0.0000000), wk =   0.0033333
        k(    6) = (   0.0000000   0.0833333   0.0000000), wk =   0.0033333
        k(    7) = (   0.0000000   0.1000000   0.0000000), wk =   0.0033333
        k(    8) = (   0.0000000   0.1166667   0.0000000), wk =   0.0033333
        k(    9) = (   0.0000000   0.1333333   0.0000000), wk =   0.0033333
        k(   10) = (   0.0000000   0.1500000   0.0000000), wk =   0.0033333
        k(   11) = (   0.0000000   0.1666667   0.0000000), wk =   0.0033333
        k(   12) = (   0.0000000   0.1833333   0.0000000), wk =   0.0033333
        k(   13) = (   0.0000000   0.2000000   0.0000000), wk =   0.0033333
        k(   14) = (   0.0000000   0.2166667   0.0000000), wk =   0.0033333
        k(   15) = (   0.0000000   0.2333333   0.0000000), wk =   0.0033333
        k(   16) = (   0.0000000   0.2500000   0.0000000), wk =   0.0033333
        k(   17) = (   0.0000000   0.2666667   0.0000000), wk =   0.0033333
        k(   18) = (   0.0000000   0.2833333   0.0000000), wk =   0.0033333
        k(   19) = (   0.0000000   0.3000000   0.0000000), wk =   0.0033333
        k(   20) = (   0.0000000   0.3166667   0.0000000), wk =   0.0033333
        k(   21) = (   0.0000000   0.3333333   0.0000000), wk =   0.0033333
        k(   22) = (   0.0000000   0.3500000   0.0000000), wk =   0.0033333
        k(   23) = (   0.0000000   0.3666667   0.0000000), wk =   0.0033333
        k(   24) = (   0.0000000   0.3833333   0.0000000), wk =   0.0033333
        k(   25) = (   0.0000000   0.4000000   0.0000000), wk =   0.0033333
        k(   26) = (   0.0000000   0.4166667   0.0000000), wk =   0.0033333
        k(   27) = (   0.0000000   0.4333333   0.0000000), wk =   0.0033333
        k(   28) = (   0.0000000   0.4500000   0.0000000), wk =   0.0033333
        k(   29) = (   0.0000000   0.4666667   0.0000000), wk =   0.0033333
        k(   30) = (   0.0000000   0.4833333   0.0000000), wk =   0.0033333
        k(   31) = (   0.0000000  -0.5000000   0.0000000), wk =   0.0016667
        k(   32) = (   0.0166667   0.0166667   0.0000000), wk =   0.0033333
        k(   33) = (   0.0166667   0.0333333   0.0000000), wk =   0.0066667
        k(   34) = (   0.0166667   0.0500000   0.0000000), wk =   0.0066667
        k(   35) = (   0.0166667   0.0666667   0.0000000), wk =   0.0066667
        k(   36) = (   0.0166667   0.0833333   0.0000000), wk =   0.0066667
        k(   37) = (   0.0166667   0.1000000   0.0000000), wk =   0.0066667
        k(   38) = (   0.0166667   0.1166667   0.0000000), wk =   0.0066667
        k(   39) = (   0.0166667   0.1333333   0.0000000), wk =   0.0066667
        k(   40) = (   0.0166667   0.1500000   0.0000000), wk =   0.0066667
        k(   41) = (   0.0166667   0.1666667   0.0000000), wk =   0.0066667
        k(   42) = (   0.0166667   0.1833333   0.0000000), wk =   0.0066667
        k(   43) = (   0.0166667   0.2000000   0.0000000), wk =   0.0066667
        k(   44) = (   0.0166667   0.2166667   0.0000000), wk =   0.0066667
        k(   45) = (   0.0166667   0.2333333   0.0000000), wk =   0.0066667
        k(   46) = (   0.0166667   0.2500000   0.0000000), wk =   0.0066667
        k(   47) = (   0.0166667   0.2666667   0.0000000), wk =   0.0066667
        k(   48) = (   0.0166667   0.2833333   0.0000000), wk =   0.0066667
        k(   49) = (   0.0166667   0.3000000   0.0000000), wk =   0.0066667
        k(   50) = (   0.0166667   0.3166667   0.0000000), wk =   0.0066667
        k(   51) = (   0.0166667   0.3333333   0.0000000), wk =   0.0066667
        k(   52) = (   0.0166667   0.3500000   0.0000000), wk =   0.0066667
        k(   53) = (   0.0166667   0.3666667   0.0000000), wk =   0.0066667
        k(   54) = (   0.0166667   0.3833333   0.0000000), wk =   0.0066667
        k(   55) = (   0.0166667   0.4000000   0.0000000), wk =   0.0066667
        k(   56) = (   0.0166667   0.4166667   0.0000000), wk =   0.0066667
        k(   57) = (   0.0166667   0.4333333   0.0000000), wk =   0.0066667
        k(   58) = (   0.0166667   0.4500000   0.0000000), wk =   0.0066667
        k(   59) = (   0.0166667   0.4666667   0.0000000), wk =   0.0066667
        k(   60) = (   0.0166667   0.4833333   0.0000000), wk =   0.0066667
        k(   61) = (   0.0333333   0.0333333   0.0000000), wk =   0.0033333
        k(   62) = (   0.0333333   0.0500000   0.0000000), wk =   0.0066667
        k(   63) = (   0.0333333   0.0666667   0.0000000), wk =   0.0066667
        k(   64) = (   0.0333333   0.0833333   0.0000000), wk =   0.0066667
        k(   65) = (   0.0333333   0.1000000   0.0000000), wk =   0.0066667
        k(   66) = (   0.0333333   0.1166667   0.0000000), wk =   0.0066667
        k(   67) = (   0.0333333   0.1333333   0.0000000), wk =   0.0066667
        k(   68) = (   0.0333333   0.1500000   0.0000000), wk =   0.0066667
        k(   69) = (   0.0333333   0.1666667   0.0000000), wk =   0.0066667
        k(   70) = (   0.0333333   0.1833333   0.0000000), wk =   0.0066667
        k(   71) = (   0.0333333   0.2000000   0.0000000), wk =   0.0066667
        k(   72) = (   0.0333333   0.2166667   0.0000000), wk =   0.0066667
        k(   73) = (   0.0333333   0.2333333   0.0000000), wk =   0.0066667
        k(   74) = (   0.0333333   0.2500000   0.0000000), wk =   0.0066667
        k(   75) = (   0.0333333   0.2666667   0.0000000), wk =   0.0066667
        k(   76) = (   0.0333333   0.2833333   0.0000000), wk =   0.0066667
        k(   77) = (   0.0333333   0.3000000   0.0000000), wk =   0.0066667
        k(   78) = (   0.0333333   0.3166667   0.0000000), wk =   0.0066667
        k(   79) = (   0.0333333   0.3333333   0.0000000), wk =   0.0066667
        k(   80) = (   0.0333333   0.3500000   0.0000000), wk =   0.0066667
        k(   81) = (   0.0333333   0.3666667   0.0000000), wk =   0.0066667
        k(   82) = (   0.0333333   0.3833333   0.0000000), wk =   0.0066667
        k(   83) = (   0.0333333   0.4000000   0.0000000), wk =   0.0066667
        k(   84) = (   0.0333333   0.4166667   0.0000000), wk =   0.0066667
        k(   85) = (   0.0333333   0.4333333   0.0000000), wk =   0.0066667
        k(   86) = (   0.0333333   0.4500000   0.0000000), wk =   0.0066667
        k(   87) = (   0.0333333   0.4666667   0.0000000), wk =   0.0066667
        k(   88) = (   0.0333333   0.4833333   0.0000000), wk =   0.0033333
        k(   89) = (   0.0500000   0.0500000   0.0000000), wk =   0.0033333
        k(   90) = (   0.0500000   0.0666667   0.0000000), wk =   0.0066667
        k(   91) = (   0.0500000   0.0833333   0.0000000), wk =   0.0066667
        k(   92) = (   0.0500000   0.1000000   0.0000000), wk =   0.0066667
        k(   93) = (   0.0500000   0.1166667   0.0000000), wk =   0.0066667
        k(   94) = (   0.0500000   0.1333333   0.0000000), wk =   0.0066667
        k(   95) = (   0.0500000   0.1500000   0.0000000), wk =   0.0066667
        k(   96) = (   0.0500000   0.1666667   0.0000000), wk =   0.0066667
        k(   97) = (   0.0500000   0.1833333   0.0000000), wk =   0.0066667
        k(   98) = (   0.0500000   0.2000000   0.0000000), wk =   0.0066667
        k(   99) = (   0.0500000   0.2166667   0.0000000), wk =   0.0066667
        k(  100) = (   0.0500000   0.2333333   0.0000000), wk =   0.0066667
        k(  101) = (   0.0500000   0.2500000   0.0000000), wk =   0.0066667
        k(  102) = (   0.0500000   0.2666667   0.0000000), wk =   0.0066667
        k(  103) = (   0.0500000   0.2833333   0.0000000), wk =   0.0066667
        k(  104) = (   0.0500000   0.3000000   0.0000000), wk =   0.0066667
        k(  105) = (   0.0500000   0.3166667   0.0000000), wk =   0.0066667
        k(  106) = (   0.0500000   0.3333333   0.0000000), wk =   0.0066667
        k(  107) = (   0.0500000   0.3500000   0.0000000), wk =   0.0066667
        k(  108) = (   0.0500000   0.3666667   0.0000000), wk =   0.0066667
        k(  109) = (   0.0500000   0.3833333   0.0000000), wk =   0.0066667
        k(  110) = (   0.0500000   0.4000000   0.0000000), wk =   0.0066667
        k(  111) = (   0.0500000   0.4166667   0.0000000), wk =   0.0066667
        k(  112) = (   0.0500000   0.4333333   0.0000000), wk =   0.0066667
        k(  113) = (   0.0500000   0.4500000   0.0000000), wk =   0.0066667
        k(  114) = (   0.0500000   0.4666667   0.0000000), wk =   0.0066667
        k(  115) = (   0.0666667   0.0666667   0.0000000), wk =   0.0033333
        k(  116) = (   0.0666667   0.0833333   0.0000000), wk =   0.0066667
        k(  117) = (   0.0666667   0.1000000   0.0000000), wk =   0.0066667
        k(  118) = (   0.0666667   0.1166667   0.0000000), wk =   0.0066667
        k(  119) = (   0.0666667   0.1333333   0.0000000), wk =   0.0066667
        k(  120) = (   0.0666667   0.1500000   0.0000000), wk =   0.0066667
        k(  121) = (   0.0666667   0.1666667   0.0000000), wk =   0.0066667
        k(  122) = (   0.0666667   0.1833333   0.0000000), wk =   0.0066667
        k(  123) = (   0.0666667   0.2000000   0.0000000), wk =   0.0066667
        k(  124) = (   0.0666667   0.2166667   0.0000000), wk =   0.0066667
        k(  125) = (   0.0666667   0.2333333   0.0000000), wk =   0.0066667
        k(  126) = (   0.0666667   0.2500000   0.0000000), wk =   0.0066667
        k(  127) = (   0.0666667   0.2666667   0.0000000), wk =   0.0066667
        k(  128) = (   0.0666667   0.2833333   0.0000000), wk =   0.0066667
        k(  129) = (   0.0666667   0.3000000   0.0000000), wk =   0.0066667
        k(  130) = (   0.0666667   0.3166667   0.0000000), wk =   0.0066667
        k(  131) = (   0.0666667   0.3333333   0.0000000), wk =   0.0066667
        k(  132) = (   0.0666667   0.3500000   0.0000000), wk =   0.0066667
        k(  133) = (   0.0666667   0.3666667   0.0000000), wk =   0.0066667
        k(  134) = (   0.0666667   0.3833333   0.0000000), wk =   0.0066667
        k(  135) = (   0.0666667   0.4000000   0.0000000), wk =   0.0066667
        k(  136) = (   0.0666667   0.4166667   0.0000000), wk =   0.0066667
        k(  137) = (   0.0666667   0.4333333   0.0000000), wk =   0.0066667
        k(  138) = (   0.0666667   0.4500000   0.0000000), wk =   0.0066667
        k(  139) = (   0.0666667   0.4666667   0.0000000), wk =   0.0033333
        k(  140) = (   0.0833333   0.0833333   0.0000000), wk =   0.0033333
        k(  141) = (   0.0833333   0.1000000   0.0000000), wk =   0.0066667
        k(  142) = (   0.0833333   0.1166667   0.0000000), wk =   0.0066667
        k(  143) = (   0.0833333   0.1333333   0.0000000), wk =   0.0066667
        k(  144) = (   0.0833333   0.1500000   0.0000000), wk =   0.0066667
        k(  145) = (   0.0833333   0.1666667   0.0000000), wk =   0.0066667
        k(  146) = (   0.0833333   0.1833333   0.0000000), wk =   0.0066667
        k(  147) = (   0.0833333   0.2000000   0.0000000), wk =   0.0066667
        k(  148) = (   0.0833333   0.2166667   0.0000000), wk =   0.0066667
        k(  149) = (   0.0833333   0.2333333   0.0000000), wk =   0.0066667
        k(  150) = (   0.0833333   0.2500000   0.0000000), wk =   0.0066667
        k(  151) = (   0.0833333   0.2666667   0.0000000), wk =   0.0066667
        k(  152) = (   0.0833333   0.2833333   0.0000000), wk =   0.0066667
        k(  153) = (   0.0833333   0.3000000   0.0000000), wk =   0.0066667
        k(  154) = (   0.0833333   0.3166667   0.0000000), wk =   0.0066667
        k(  155) = (   0.0833333   0.3333333   0.0000000), wk =   0.0066667
        k(  156) = (   0.0833333   0.3500000   0.0000000), wk =   0.0066667
        k(  157) = (   0.0833333   0.3666667   0.0000000), wk =   0.0066667
        k(  158) = (   0.0833333   0.3833333   0.0000000), wk =   0.0066667
        k(  159) = (   0.0833333   0.4000000   0.0000000), wk =   0.0066667
        k(  160) = (   0.0833333   0.4166667   0.0000000), wk =   0.0066667
        k(  161) = (   0.0833333   0.4333333   0.0000000), wk =   0.0066667
        k(  162) = (   0.0833333   0.4500000   0.0000000), wk =   0.0066667
        k(  163) = (   0.1000000   0.1000000   0.0000000), wk =   0.0033333
        k(  164) = (   0.1000000   0.1166667   0.0000000), wk =   0.0066667
        k(  165) = (   0.1000000   0.1333333   0.0000000), wk =   0.0066667
        k(  166) = (   0.1000000   0.1500000   0.0000000), wk =   0.0066667
        k(  167) = (   0.1000000   0.1666667   0.0000000), wk =   0.0066667
        k(  168) = (   0.1000000   0.1833333   0.0000000), wk =   0.0066667
        k(  169) = (   0.1000000   0.2000000   0.0000000), wk =   0.0066667
        k(  170) = (   0.1000000   0.2166667   0.0000000), wk =   0.0066667
        k(  171) = (   0.1000000   0.2333333   0.0000000), wk =   0.0066667
        k(  172) = (   0.1000000   0.2500000   0.0000000), wk =   0.0066667
        k(  173) = (   0.1000000   0.2666667   0.0000000), wk =   0.0066667
        k(  174) = (   0.1000000   0.2833333   0.0000000), wk =   0.0066667
        k(  175) = (   0.1000000   0.3000000   0.0000000), wk =   0.0066667
        k(  176) = (   0.1000000   0.3166667   0.0000000), wk =   0.0066667
        k(  177) = (   0.1000000   0.3333333   0.0000000), wk =   0.0066667
        k(  178) = (   0.1000000   0.3500000   0.0000000), wk =   0.0066667
        k(  179) = (   0.1000000   0.3666667   0.0000000), wk =   0.0066667
        k(  180) = (   0.1000000   0.3833333   0.0000000), wk =   0.0066667
        k(  181) = (   0.1000000   0.4000000   0.0000000), wk =   0.0066667
        k(  182) = (   0.1000000   0.4166667   0.0000000), wk =   0.0066667
        k(  183) = (   0.1000000   0.4333333   0.0000000), wk =   0.0066667
        k(  184) = (   0.1000000   0.4500000   0.0000000), wk =   0.0033333
        k(  185) = (   0.1166667   0.1166667   0.0000000), wk =   0.0033333
        k(  186) = (   0.1166667   0.1333333   0.0000000), wk =   0.0066667
        k(  187) = (   0.1166667   0.1500000   0.0000000), wk =   0.0066667
        k(  188) = (   0.1166667   0.1666667   0.0000000), wk =   0.0066667
        k(  189) = (   0.1166667   0.1833333   0.0000000), wk =   0.0066667
        k(  190) = (   0.1166667   0.2000000   0.0000000), wk =   0.0066667
        k(  191) = (   0.1166667   0.2166667   0.0000000), wk =   0.0066667
        k(  192) = (   0.1166667   0.2333333   0.0000000), wk =   0.0066667
        k(  193) = (   0.1166667   0.2500000   0.0000000), wk =   0.0066667
        k(  194) = (   0.1166667   0.2666667   0.0000000), wk =   0.0066667
        k(  195) = (   0.1166667   0.2833333   0.0000000), wk =   0.0066667
        k(  196) = (   0.1166667   0.3000000   0.0000000), wk =   0.0066667
        k(  197) = (   0.1166667   0.3166667   0.0000000), wk =   0.0066667
        k(  198) = (   0.1166667   0.3333333   0.0000000), wk =   0.0066667
        k(  199) = (   0.1166667   0.3500000   0.0000000), wk =   0.0066667
        k(  200) = (   0.1166667   0.3666667   0.0000000), wk =   0.0066667
        k(  201) = (   0.1166667   0.3833333   0.0000000), wk =   0.0066667
        k(  202) = (   0.1166667   0.4000000   0.0000000), wk =   0.0066667
        k(  203) = (   0.1166667   0.4166667   0.0000000), wk =   0.0066667
        k(  204) = (   0.1166667   0.4333333   0.0000000), wk =   0.0066667
        k(  205) = (   0.1333333   0.1333333   0.0000000), wk =   0.0033333
        k(  206) = (   0.1333333   0.1500000   0.0000000), wk =   0.0066667
        k(  207) = (   0.1333333   0.1666667   0.0000000), wk =   0.0066667
        k(  208) = (   0.1333333   0.1833333   0.0000000), wk =   0.0066667
        k(  209) = (   0.1333333   0.2000000   0.0000000), wk =   0.0066667
        k(  210) = (   0.1333333   0.2166667   0.0000000), wk =   0.0066667
        k(  211) = (   0.1333333   0.2333333   0.0000000), wk =   0.0066667
        k(  212) = (   0.1333333   0.2500000   0.0000000), wk =   0.0066667
        k(  213) = (   0.1333333   0.2666667   0.0000000), wk =   0.0066667
        k(  214) = (   0.1333333   0.2833333   0.0000000), wk =   0.0066667
        k(  215) = (   0.1333333   0.3000000   0.0000000), wk =   0.0066667
        k(  216) = (   0.1333333   0.3166667   0.0000000), wk =   0.0066667
        k(  217) = (   0.1333333   0.3333333   0.0000000), wk =   0.0066667
        k(  218) = (   0.1333333   0.3500000   0.0000000), wk =   0.0066667
        k(  219) = (   0.1333333   0.3666667   0.0000000), wk =   0.0066667
        k(  220) = (   0.1333333   0.3833333   0.0000000), wk =   0.0066667
        k(  221) = (   0.1333333   0.4000000   0.0000000), wk =   0.0066667
        k(  222) = (   0.1333333   0.4166667   0.0000000), wk =   0.0066667
        k(  223) = (   0.1333333   0.4333333   0.0000000), wk =   0.0033333
        k(  224) = (   0.1500000   0.1500000   0.0000000), wk =   0.0033333
        k(  225) = (   0.1500000   0.1666667   0.0000000), wk =   0.0066667
        k(  226) = (   0.1500000   0.1833333   0.0000000), wk =   0.0066667
        k(  227) = (   0.1500000   0.2000000   0.0000000), wk =   0.0066667
        k(  228) = (   0.1500000   0.2166667   0.0000000), wk =   0.0066667
        k(  229) = (   0.1500000   0.2333333   0.0000000), wk =   0.0066667
        k(  230) = (   0.1500000   0.2500000   0.0000000), wk =   0.0066667
        k(  231) = (   0.1500000   0.2666667   0.0000000), wk =   0.0066667
        k(  232) = (   0.1500000   0.2833333   0.0000000), wk =   0.0066667
        k(  233) = (   0.1500000   0.3000000   0.0000000), wk =   0.0066667
        k(  234) = (   0.1500000   0.3166667   0.0000000), wk =   0.0066667
        k(  235) = (   0.1500000   0.3333333   0.0000000), wk =   0.0066667
        k(  236) = (   0.1500000   0.3500000   0.0000000), wk =   0.0066667
        k(  237) = (   0.1500000   0.3666667   0.0000000), wk =   0.0066667
        k(  238) = (   0.1500000   0.3833333   0.0000000), wk =   0.0066667
        k(  239) = (   0.1500000   0.4000000   0.0000000), wk =   0.0066667
        k(  240) = (   0.1500000   0.4166667   0.0000000), wk =   0.0066667
        k(  241) = (   0.1666667   0.1666667   0.0000000), wk =   0.0033333
        k(  242) = (   0.1666667   0.1833333   0.0000000), wk =   0.0066667
        k(  243) = (   0.1666667   0.2000000   0.0000000), wk =   0.0066667
        k(  244) = (   0.1666667   0.2166667   0.0000000), wk =   0.0066667
        k(  245) = (   0.1666667   0.2333333   0.0000000), wk =   0.0066667
        k(  246) = (   0.1666667   0.2500000   0.0000000), wk =   0.0066667
        k(  247) = (   0.1666667   0.2666667   0.0000000), wk =   0.0066667
        k(  248) = (   0.1666667   0.2833333   0.0000000), wk =   0.0066667
        k(  249) = (   0.1666667   0.3000000   0.0000000), wk =   0.0066667
        k(  250) = (   0.1666667   0.3166667   0.0000000), wk =   0.0066667
        k(  251) = (   0.1666667   0.3333333   0.0000000), wk =   0.0066667
        k(  252) = (   0.1666667   0.3500000   0.0000000), wk =   0.0066667
        k(  253) = (   0.1666667   0.3666667   0.0000000), wk =   0.0066667
        k(  254) = (   0.1666667   0.3833333   0.0000000), wk =   0.0066667
        k(  255) = (   0.1666667   0.4000000   0.0000000), wk =   0.0066667
        k(  256) = (   0.1666667   0.4166667   0.0000000), wk =   0.0033333
        k(  257) = (   0.1833333   0.1833333   0.0000000), wk =   0.0033333
        k(  258) = (   0.1833333   0.2000000   0.0000000), wk =   0.0066667
        k(  259) = (   0.1833333   0.2166667   0.0000000), wk =   0.0066667
        k(  260) = (   0.1833333   0.2333333   0.0000000), wk =   0.0066667
        k(  261) = (   0.1833333   0.2500000   0.0000000), wk =   0.0066667
        k(  262) = (   0.1833333   0.2666667   0.0000000), wk =   0.0066667
        k(  263) = (   0.1833333   0.2833333   0.0000000), wk =   0.0066667
        k(  264) = (   0.1833333   0.3000000   0.0000000), wk =   0.0066667
        k(  265) = (   0.1833333   0.3166667   0.0000000), wk =   0.0066667
        k(  266) = (   0.1833333   0.3333333   0.0000000), wk =   0.0066667
        k(  267) = (   0.1833333   0.3500000   0.0000000), wk =   0.0066667
        k(  268) = (   0.1833333   0.3666667   0.0000000), wk =   0.0066667
        k(  269) = (   0.1833333   0.3833333   0.0000000), wk =   0.0066667
        k(  270) = (   0.1833333   0.4000000   0.0000000), wk =   0.0066667
        k(  271) = (   0.2000000   0.2000000   0.0000000), wk =   0.0033333
        k(  272) = (   0.2000000   0.2166667   0.0000000), wk =   0.0066667
        k(  273) = (   0.2000000   0.2333333   0.0000000), wk =   0.0066667
        k(  274) = (   0.2000000   0.2500000   0.0000000), wk =   0.0066667
        k(  275) = (   0.2000000   0.2666667   0.0000000), wk =   0.0066667
        k(  276) = (   0.2000000   0.2833333   0.0000000), wk =   0.0066667
        k(  277) = (   0.2000000   0.3000000   0.0000000), wk =   0.0066667
        k(  278) = (   0.2000000   0.3166667   0.0000000), wk =   0.0066667
        k(  279) = (   0.2000000   0.3333333   0.0000000), wk =   0.0066667
        k(  280) = (   0.2000000   0.3500000   0.0000000), wk =   0.0066667
        k(  281) = (   0.2000000   0.3666667   0.0000000), wk =   0.0066667
        k(  282) = (   0.2000000   0.3833333   0.0000000), wk =   0.0066667
        k(  283) = (   0.2000000   0.4000000   0.0000000), wk =   0.0033333
        k(  284) = (   0.2166667   0.2166667   0.0000000), wk =   0.0033333
        k(  285) = (   0.2166667   0.2333333   0.0000000), wk =   0.0066667
        k(  286) = (   0.2166667   0.2500000   0.0000000), wk =   0.0066667
        k(  287) = (   0.2166667   0.2666667   0.0000000), wk =   0.0066667
        k(  288) = (   0.2166667   0.2833333   0.0000000), wk =   0.0066667
        k(  289) = (   0.2166667   0.3000000   0.0000000), wk =   0.0066667
        k(  290) = (   0.2166667   0.3166667   0.0000000), wk =   0.0066667
        k(  291) = (   0.2166667   0.3333333   0.0000000), wk =   0.0066667
        k(  292) = (   0.2166667   0.3500000   0.0000000), wk =   0.0066667
        k(  293) = (   0.2166667   0.3666667   0.0000000), wk =   0.0066667
        k(  294) = (   0.2166667   0.3833333   0.0000000), wk =   0.0066667
        k(  295) = (   0.2333333   0.2333333   0.0000000), wk =   0.0033333
        k(  296) = (   0.2333333   0.2500000   0.0000000), wk =   0.0066667
        k(  297) = (   0.2333333   0.2666667   0.0000000), wk =   0.0066667
        k(  298) = (   0.2333333   0.2833333   0.0000000), wk =   0.0066667
        k(  299) = (   0.2333333   0.3000000   0.0000000), wk =   0.0066667
        k(  300) = (   0.2333333   0.3166667   0.0000000), wk =   0.0066667
        k(  301) = (   0.2333333   0.3333333   0.0000000), wk =   0.0066667
        k(  302) = (   0.2333333   0.3500000   0.0000000), wk =   0.0066667
        k(  303) = (   0.2333333   0.3666667   0.0000000), wk =   0.0066667
        k(  304) = (   0.2333333   0.3833333   0.0000000), wk =   0.0033333
        k(  305) = (   0.2500000   0.2500000   0.0000000), wk =   0.0033333
        k(  306) = (   0.2500000   0.2666667   0.0000000), wk =   0.0066667
        k(  307) = (   0.2500000   0.2833333   0.0000000), wk =   0.0066667
        k(  308) = (   0.2500000   0.3000000   0.0000000), wk =   0.0066667
        k(  309) = (   0.2500000   0.3166667   0.0000000), wk =   0.0066667
        k(  310) = (   0.2500000   0.3333333   0.0000000), wk =   0.0066667
        k(  311) = (   0.2500000   0.3500000   0.0000000), wk =   0.0066667
        k(  312) = (   0.2500000   0.3666667   0.0000000), wk =   0.0066667
        k(  313) = (   0.2666667   0.2666667   0.0000000), wk =   0.0033333
        k(  314) = (   0.2666667   0.2833333   0.0000000), wk =   0.0066667
        k(  315) = (   0.2666667   0.3000000   0.0000000), wk =   0.0066667
        k(  316) = (   0.2666667   0.3166667   0.0000000), wk =   0.0066667
        k(  317) = (   0.2666667   0.3333333   0.0000000), wk =   0.0066667
        k(  318) = (   0.2666667   0.3500000   0.0000000), wk =   0.0066667
        k(  319) = (   0.2666667   0.3666667   0.0000000), wk =   0.0033333
        k(  320) = (   0.2833333   0.2833333   0.0000000), wk =   0.0033333
        k(  321) = (   0.2833333   0.3000000   0.0000000), wk =   0.0066667
        k(  322) = (   0.2833333   0.3166667   0.0000000), wk =   0.0066667
        k(  323) = (   0.2833333   0.3333333   0.0000000), wk =   0.0066667
        k(  324) = (   0.2833333   0.3500000   0.0000000), wk =   0.0066667
        k(  325) = (   0.3000000   0.3000000   0.0000000), wk =   0.0033333
        k(  326) = (   0.3000000   0.3166667   0.0000000), wk =   0.0066667
        k(  327) = (   0.3000000   0.3333333   0.0000000), wk =   0.0066667
        k(  328) = (   0.3000000   0.3500000   0.0000000), wk =   0.0033333
        k(  329) = (   0.3166667   0.3166667   0.0000000), wk =   0.0033333
        k(  330) = (   0.3166667   0.3333333   0.0000000), wk =   0.0066667
        k(  331) = (   0.3333333   0.3333333   0.0000000), wk =   0.0011111

     Dense  grid:   455489 G-vectors     FFT dimensions: (  64,  64, 270)

     Smooth grid:   160939 G-vectors     FFT dimensions: (  45,  45, 192)

     Dynamical RAM for                 wfc:       3.07 MB

     Dynamical RAM for     wfc (w. buffer):       3.07 MB

     Dynamical RAM for           str. fact:       1.16 MB

     Dynamical RAM for           local pot:       0.00 MB

     Dynamical RAM for          nlocal pot:       1.84 MB

     Dynamical RAM for                qrad:       1.76 MB

     Dynamical RAM for          rho,v,vnew:       7.69 MB

     Dynamical RAM for           G-vectors:       4.55 MB

     Dynamical RAM for          h,s,v(r/c):       0.66 MB

     Dynamical RAM for          <psi|beta>:       0.03 MB

     Dynamical RAM for                 psi:       6.14 MB

     Dynamical RAM for                hpsi:       6.14 MB

     Dynamical RAM for                spsi:       6.14 MB

     Dynamical RAM for      wfcinit/wfcrot:       6.22 MB

     Dynamical RAM for           addusdens:     217.76 MB

     Estimated static dynamical RAM per process >      29.42 MB

     Estimated max dynamical RAM per process >     247.18 MB

     Estimated total dynamical RAM >       1.45 GB

     The potential is recalculated from file :
     ../tmp/stanene.save/charge-density


     negative rho (up, down):  8.722E-05 0.000E+00
     Starting wfcs are   18 randomized atomic wfcs +   42 random wfcs

     Band Structure Calculation
     Davidson diagonalization with overlap

     Computing kpt #:     1  of   331
     total cpu time spent up to now is      104.4 secs

     Computing kpt #:     2  of   331
     total cpu time spent up to now is      186.1 secs

     Computing kpt #:     3  of   331
     total cpu time spent up to now is      269.4 secs

     Computing kpt #:     4  of   331
     total cpu time spent up to now is      354.9 secs

     Computing kpt #:     5  of   331
     total cpu time spent up to now is      457.7 secs

     Computing kpt #:     6  of   331
     c_bands:  1 eigenvalues not converged
     total cpu time spent up to now is      583.8 secs

     Computing kpt #:     7  of   331
     total cpu time spent up to now is      691.1 secs

     Computing kpt #:     8  of   331
     total cpu time spent up to now is      767.1 secs

     Computing kpt #:     9  of   331
     total cpu time spent up to now is      882.9 secs

     Computing kpt #:    10  of   331
     total cpu time spent up to now is      949.3 secs

     Computing kpt #:    11  of   331
     total cpu time spent up to now is     1026.6 secs

     Computing kpt #:    12  of   331
     total cpu time spent up to now is     1110.9 secs

     Computing kpt #:    13  of   331
     total cpu time spent up to now is     1197.7 secs

     Computing kpt #:    14  of   331
     total cpu time spent up to now is     1275.5 secs

     Computing kpt #:    15  of   331
     c_bands:  1 eigenvalues not converged
     total cpu time spent up to now is     1395.9 secs

     Computing kpt #:    16  of   331
     total cpu time spent up to now is     1462.4 secs

     Computing kpt #:    17  of   331
     total cpu time spent up to now is     1530.9 secs

     Computing kpt #:    18  of   331
     total cpu time spent up to now is     1600.9 secs

     Computing kpt #:    19  of   331
     total cpu time spent up to now is     1667.2 secs

     Computing kpt #:    20  of   331
     total cpu time spent up to now is     1742.3 secs

     Computing kpt #:    21  of   331
     total cpu time spent up to now is     1824.6 secs

     Computing kpt #:    22  of   331
     total cpu time spent up to now is     1887.2 secs

     Computing kpt #:    23  of   331
     total cpu time spent up to now is     1951.2 secs

     Computing kpt #:    24  of   331
     total cpu time spent up to now is     2010.3 secs

     Computing kpt #:    25  of   331
     total cpu time spent up to now is     2070.9 secs

     Computing kpt #:    26  of   331
     total cpu time spent up to now is     2131.1 secs

     Computing kpt #:    27  of   331
     total cpu time spent up to now is     2185.7 secs

     Computing kpt #:    28  of   331
     total cpu time spent up to now is     2243.8 secs

     Computing kpt #:    29  of   331
     total cpu time spent up to now is     2295.1 secs

     Computing kpt #:    30  of   331
     total cpu time spent up to now is     2344.5 secs

     Computing kpt #:    31  of   331
     total cpu time spent up to now is     2397.3 secs

     Computing kpt #:    32  of   331
     total cpu time spent up to now is     2469.7 secs

     Computing kpt #:    33  of   331
     total cpu time spent up to now is     2540.0 secs

     Computing kpt #:    34  of   331
     total cpu time spent up to now is     2612.1 secs

     Computing kpt #:    35  of   331
     total cpu time spent up to now is     2686.3 secs

     Computing kpt #:    36  of   331
     total cpu time spent up to now is     2760.0 secs

     Computing kpt #:    37  of   331
     total cpu time spent up to now is     2843.0 secs

     Computing kpt #:    38  of   331
     total cpu time spent up to now is     2926.8 secs

     Computing kpt #:    39  of   331
     total cpu time spent up to now is     3003.2 secs

     Computing kpt #:    40  of   331
     total cpu time spent up to now is     3079.5 secs

     Computing kpt #:    41  of   331
     total cpu time spent up to now is     3160.7 secs

     Computing kpt #:    42  of   331
     total cpu time spent up to now is     3241.4 secs

     Computing kpt #:    43  of   331
     total cpu time spent up to now is     3324.0 secs

     Computing kpt #:    44  of   331
     total cpu time spent up to now is     3407.2 secs

     Computing kpt #:    45  of   331
     total cpu time spent up to now is     3480.6 secs

     Computing kpt #:    46  of   331
     total cpu time spent up to now is     3553.2 secs

     Computing kpt #:    47  of   331
     total cpu time spent up to now is     3620.8 secs

     Computing kpt #:    48  of   331
     total cpu time spent up to now is     3702.2 secs

     Computing kpt #:    49  of   331
     total cpu time spent up to now is     3783.0 secs

     Computing kpt #:    50  of   331
     total cpu time spent up to now is     3850.8 secs

     Computing kpt #:    51  of   331
     total cpu time spent up to now is     3904.0 secs

     Computing kpt #:    52  of   331
     total cpu time spent up to now is     3961.4 secs

     Computing kpt #:    53  of   331
     total cpu time spent up to now is     4022.6 secs

     Computing kpt #:    54  of   331
     total cpu time spent up to now is     4089.7 secs

     Computing kpt #:    55  of   331
     total cpu time spent up to now is     4166.4 secs

     Computing kpt #:    56  of   331
     total cpu time spent up to now is     4242.2 secs

     Computing kpt #:    57  of   331
     total cpu time spent up to now is     4299.5 secs

     Computing kpt #:    58  of   331
     total cpu time spent up to now is     4353.8 secs

     Computing kpt #:    59  of   331
     total cpu time spent up to now is     4403.7 secs

     Computing kpt #:    60  of   331
     total cpu time spent up to now is     4455.0 secs

     Computing kpt #:    61  of   331
     total cpu time spent up to now is     4525.4 secs

     Computing kpt #:    62  of   331
     total cpu time spent up to now is     4589.0 secs

     Computing kpt #:    63  of   331
     total cpu time spent up to now is     4657.8 secs

     Computing kpt #:    64  of   331
     c_bands:  1 eigenvalues not converged
     total cpu time spent up to now is     4781.0 secs

     Computing kpt #:    65  of   331
     total cpu time spent up to now is     4856.6 secs

     Computing kpt #:    66  of   331
     total cpu time spent up to now is     4949.6 secs

     Computing kpt #:    67  of   331
     total cpu time spent up to now is     5027.5 secs

     Computing kpt #:    68  of   331
     total cpu time spent up to now is     5111.7 secs

     Computing kpt #:    69  of   331
     total cpu time spent up to now is     5202.0 secs

     Computing kpt #:    70  of   331
     total cpu time spent up to now is     5316.9 secs

     Computing kpt #:    71  of   331
     total cpu time spent up to now is     5396.3 secs

     Computing kpt #:    72  of   331
     total cpu time spent up to now is     5474.1 secs

     Computing kpt #:    73  of   331
     total cpu time spent up to now is     5553.5 secs

     Computing kpt #:    74  of   331
     total cpu time spent up to now is     5659.4 secs

     Computing kpt #:    75  of   331
     total cpu time spent up to now is     5730.3 secs

     Computing kpt #:    76  of   331
     c_bands:  1 eigenvalues not converged
     total cpu time spent up to now is     5847.1 secs

     Computing kpt #:    77  of   331
     total cpu time spent up to now is     5918.4 secs

     Computing kpt #:    78  of   331
     total cpu time spent up to now is     5987.4 secs

     Computing kpt #:    79  of   331
     total cpu time spent up to now is     6045.3 secs

     Computing kpt #:    80  of   331
     total cpu time spent up to now is     6110.0 secs

     Computing kpt #:    81  of   331
     total cpu time spent up to now is     6172.0 secs

     Computing kpt #:    82  of   331
     total cpu time spent up to now is     6245.5 secs

     Computing kpt #:    83  of   331
     c_bands:  1 eigenvalues not converged
     total cpu time spent up to now is     6366.9 secs

     Computing kpt #:    84  of   331
     total cpu time spent up to now is     6429.1 secs

     Computing kpt #:    85  of   331
     total cpu time spent up to now is     6482.8 secs

     Computing kpt #:    86  of   331
     total cpu time spent up to now is     6536.8 secs

     Computing kpt #:    87  of   331
     total cpu time spent up to now is     6588.5 secs

     Computing kpt #:    88  of   331
     total cpu time spent up to now is     6638.4 secs

     Computing kpt #:    89  of   331
     total cpu time spent up to now is     6708.7 secs

     Computing kpt #:    90  of   331
     total cpu time spent up to now is     6779.9 secs

     Computing kpt #:    91  of   331
     total cpu time spent up to now is     6856.6 secs

     Computing kpt #:    92  of   331
     total cpu time spent up to now is     6936.1 secs

     Computing kpt #:    93  of   331
     total cpu time spent up to now is     7014.7 secs

     Computing kpt #:    94  of   331
     total cpu time spent up to now is     7086.0 secs

     Computing kpt #:    95  of   331
     total cpu time spent up to now is     7161.5 secs

     Computing kpt #:    96  of   331
     total cpu time spent up to now is     7241.2 secs

     Computing kpt #:    97  of   331
     total cpu time spent up to now is     7311.4 secs

     Computing kpt #:    98  of   331
     total cpu time spent up to now is     7381.5 secs

     Computing kpt #:    99  of   331
     total cpu time spent up to now is     7455.5 secs

     Computing kpt #:   100  of   331
     total cpu time spent up to now is     7542.6 secs

     Computing kpt #:   101  of   331
     total cpu time spent up to now is     7607.4 secs

     Computing kpt #:   102  of   331
     total cpu time spent up to now is     7692.8 secs

     Computing kpt #:   103  of   331
     total cpu time spent up to now is     7787.0 secs

     Computing kpt #:   104  of   331
     total cpu time spent up to now is     7859.2 secs

     Computing kpt #:   105  of   331
     total cpu time spent up to now is     7926.2 secs

     Computing kpt #:   106  of   331
     total cpu time spent up to now is     7987.4 secs

     Computing kpt #:   107  of   331
     total cpu time spent up to now is     8050.1 secs

     Computing kpt #:   108  of   331
     total cpu time spent up to now is     8113.9 secs

     Computing kpt #:   109  of   331
     total cpu time spent up to now is     8184.3 secs

     Computing kpt #:   110  of   331
     total cpu time spent up to now is     8250.2 secs

     Computing kpt #:   111  of   331
     total cpu time spent up to now is     8319.0 secs

     Computing kpt #:   112  of   331
     total cpu time spent up to now is     8379.6 secs

     Computing kpt #:   113  of   331
     total cpu time spent up to now is     8431.8 secs

     Computing kpt #:   114  of   331
     total cpu time spent up to now is     8483.4 secs

     Computing kpt #:   115  of   331
     total cpu time spent up to now is     8565.9 secs

     Computing kpt #:   116  of   331
     total cpu time spent up to now is     8640.0 secs

     Computing kpt #:   117  of   331
     total cpu time spent up to now is     8721.5 secs

     Computing kpt #:   118  of   331
     total cpu time spent up to now is     8798.3 secs

     Computing kpt #:   119  of   331
     total cpu time spent up to now is     8879.1 secs

     Computing kpt #:   120  of   331
     total cpu time spent up to now is     8954.9 secs

     Computing kpt #:   121  of   331
     total cpu time spent up to now is     9038.9 secs

     Computing kpt #:   122  of   331
     total cpu time spent up to now is     9099.1 secs

     Computing kpt #:   123  of   331
     total cpu time spent up to now is     9169.2 secs

     Computing kpt #:   124  of   331
     total cpu time spent up to now is     9237.3 secs

     Computing kpt #:   125  of   331
     total cpu time spent up to now is     9320.5 secs

[...]
     0.0000   0.0000   0.0000   0.0000   0.0000   0.0000   0.0000   0.0000
     0.0000   0.0000   0.0000   0.0000   0.0000   0.0000   0.0000   0.0000
     0.0000   0.0000   0.0000   0.0000

          k = 0.2667 0.5581 0.0000 ( 20127 PWs)   bands (ev):

   -24.3366 -24.1591 -24.1254 -24.0263 -23.9012 -23.8651 -23.7354 -23.7342
   -23.7169 -23.5613 -10.1211  -9.4859  -5.7511  -2.2214  -1.6160   1.0537
     2.2256   2.4391   3.4326   3.7353   4.2496   4.6434   4.8327   5.0193
     5.0484   5.2813   5.7493   5.9726   6.1141   6.3008   6.4849   6.6428
     7.2365   7.3753   8.1327   8.4075   8.4201   8.6346   8.9564   9.0450
     9.5126   9.6819   9.8578  10.4091  10.8344  11.6718  11.7408  11.8895
    12.0964  12.1020  12.2436  12.8457  12.9861  13.1535  13.2633  13.3031
    13.8293  14.0937  14.4202  14.5616

     occupation numbers 
     1.0000   1.0000   1.0000   1.0000   1.0000   1.0000   1.0000   1.0000
     1.0000   1.0000   1.0000   1.0000   1.0000  -0.0802   0.0000   0.0000
     0.0000   0.0000   0.0000   0.0000   0.0000   0.0000   0.0000   0.0000
     0.0000   0.0000   0.0000   0.0000   0.0000   0.0000   0.0000   0.0000
     0.0000   0.0000   0.0000   0.0000   0.0000   0.0000   0.0000   0.0000
     0.0000   0.0000   0.0000   0.0000   0.0000   0.0000   0.0000   0.0000
     0.0000   0.0000   0.0000   0.0000   0.0000   0.0000   0.0000   0.0000
     0.0000   0.0000   0.0000   0.0000

          k = 0.2667 0.5774 0.0000 ( 20139 PWs)   bands (ev):

   -24.3370 -24.1589 -24.1257 -24.0264 -23.9005 -23.8659 -23.7353 -23.7342
   -23.7169 -23.5609 -10.0999  -9.5091  -5.7561  -2.2012  -1.6375   1.0581
     2.2206   2.4800   3.5269   3.6162   4.2277   4.7068   4.8888   4.9526
     5.0372   5.2219   5.7538   5.9715   6.1588   6.3668   6.4288   6.5690
     7.2333   7.3726   8.1405   8.4410   8.4487   8.7282   8.8607   9.0139
     9.5460   9.6775   9.9421  10.2784  10.8000  11.7215  11.8069  11.8718
    12.0438  12.1329  12.2043  12.8471  12.9811  13.1510  13.2624  13.3717
    13.8673  14.0556  14.3151  14.5602

     occupation numbers 
     1.0000   1.0000   1.0000   1.0000   1.0000   1.0000   1.0000   1.0000
     1.0000   1.0000   1.0000   1.0000   1.0000   0.0000   0.0000   0.0000
     0.0000   0.0000   0.0000   0.0000   0.0000   0.0000   0.0000   0.0000
     0.0000   0.0000   0.0000   0.0000   0.0000   0.0000   0.0000   0.0000
     0.0000   0.0000   0.0000   0.0000   0.0000   0.0000   0.0000   0.0000
     0.0000   0.0000   0.0000   0.0000   0.0000   0.0000   0.0000   0.0000
     0.0000   0.0000   0.0000   0.0000   0.0000   0.0000   0.0000   0.0000
     0.0000   0.0000   0.0000   0.0000

          k = 0.2833 0.4907 0.0000 ( 20149 PWs)   bands (ev):

   -24.3318 -24.1617 -24.1230 -24.0254 -23.9098 -23.8565 -23.7363 -23.7338
   -23.7179 -23.5666 -10.3372  -9.2392  -5.6845  -2.4279  -1.3880   1.0389
     1.9653   2.2918   3.0980   4.2788   4.3622   4.4222   4.4869   5.1941
     5.4845   5.5707   5.8275   5.8321   5.9488   6.0318   6.9117   7.1346
     7.2401   7.3443   7.9007   7.9924   8.2408   8.3732   8.8737   9.4692
     9.4863   9.6563   9.6971  11.1677  11.3192  11.3569  11.3884  11.4230
    12.2992  12.3306  12.4973  12.7236  12.8926  13.0292  13.4332  13.4843
    13.4845  13.6129  13.7251  14.7905

     occupation numbers 
     1.0000   1.0000   1.0000   1.0000   1.0000   1.0000   1.0000   1.0000
     1.0000   1.0000   1.0000   1.0000   1.0000   1.0000   0.0000   0.0000
     0.0000   0.0000   0.0000   0.0000   0.0000   0.0000   0.0000   0.0000
     0.0000   0.0000   0.0000   0.0000   0.0000   0.0000   0.0000   0.0000
     0.0000   0.0000   0.0000   0.0000   0.0000   0.0000   0.0000   0.0000
     0.0000   0.0000   0.0000   0.0000   0.0000   0.0000   0.0000   0.0000
     0.0000   0.0000   0.0000   0.0000   0.0000   0.0000   0.0000   0.0000
     0.0000   0.0000   0.0000   0.0000

          k = 0.2833 0.5100 0.0000 ( 20143 PWs)   bands (ev):

   -24.3345 -24.1591 -24.1252 -24.0259 -23.9055 -23.8608 -23.7358 -23.7332
   -23.7186 -23.5637 -10.2460  -9.3433  -5.7258  -2.3401  -1.4845   1.1506
     2.0508   2.2505   3.2036   4.2076   4.3092   4.3999   4.5844   5.1077
     5.3749   5.6160   5.6849   5.8326   5.9558   6.0859   6.8117   7.0257
     7.1746   7.2794   8.1016   8.1348   8.3610   8.4342   9.0024   9.3653
     9.3831   9.5925   9.6362  10.9049  11.2838  11.4534  11.5091  11.5533
    12.2732  12.3958  12.4992  12.6303  12.8720  12.9556  13.4591  13.4652
    13.6572  13.7632  13.9297  14.6376

     occupation numbers 
     1.0000   1.0000   1.0000   1.0000   1.0000   1.0000   1.0000   1.0000
     1.0000   1.0000   1.0000   1.0000   1.0000   1.0537   0.0000   0.0000
     0.0000   0.0000   0.0000   0.0000   0.0000   0.0000   0.0000   0.0000
     0.0000   0.0000   0.0000   0.0000   0.0000   0.0000   0.0000   0.0000
     0.0000   0.0000   0.0000   0.0000   0.0000   0.0000   0.0000   0.0000
     0.0000   0.0000   0.0000   0.0000   0.0000   0.0000   0.0000   0.0000
     0.0000   0.0000   0.0000   0.0000   0.0000   0.0000   0.0000   0.0000
     0.0000   0.0000   0.0000   0.0000

          k = 0.2833 0.5292 0.0000 ( 20138 PWs)   bands (ev):

   -24.3365 -24.1568 -24.1272 -24.0263 -23.9016 -23.8647 -23.7354 -23.7327
   -23.7191 -23.5614 -10.1597  -9.4394  -5.7569  -2.2574  -1.5738   1.2248
     2.1551   2.2192   3.3069   4.0077   4.2315   4.5239   4.7010   5.0500
     5.2489   5.5313   5.6307   5.8252   6.0223   6.1856   6.6934   6.8909
     7.1346   7.2474   8.2017   8.3358   8.4635   8.4884   9.1417   9.2222
     9.3040   9.5604   9.6233  10.6360  11.1586  11.5679  11.6288  11.7415
    12.2314  12.2831  12.4698  12.6722  12.9058  12.9436  13.4507  13.4954
    13.6788  14.0484  14.1969  14.3875

     occupation numbers 
     1.0000   1.0000   1.0000   1.0000   1.0000   1.0000   1.0000   1.0000
     1.0000   1.0000   1.0000   1.0000   1.0000   0.2363   0.0000   0.0000
     0.0000   0.0000   0.0000   0.0000   0.0000   0.0000   0.0000   0.0000
     0.0000   0.0000   0.0000   0.0000   0.0000   0.0000   0.0000   0.0000
     0.0000   0.0000   0.0000   0.0000   0.0000   0.0000   0.0000   0.0000
     0.0000   0.0000   0.0000   0.0000   0.0000   0.0000   0.0000   0.0000
     0.0000   0.0000   0.0000   0.0000   0.0000   0.0000   0.0000   0.0000
     0.0000   0.0000   0.0000   0.0000

          k = 0.2833 0.5485 0.0000 ( 20140 PWs)   bands (ev):

   -24.3379 -24.1551 -24.1287 -24.0266 -23.8984 -23.8680 -23.7351 -23.7324
   -23.7195 -23.5599 -10.0857  -9.5199  -5.7777  -2.1867  -1.6488   1.2678
     2.1983   2.2547   3.4058   3.8285   4.1688   4.6465   4.7980   5.0366
     5.1209   5.3843   5.6313   5.8177   6.1170   6.3001   6.5721   6.7535
     7.1122   7.2307   8.2813   8.4790   8.4834   8.6229   9.0774   9.1496
     9.3461   9.5416   9.6693  10.3829  11.0549  11.6800  11.7428  11.8811
    12.1701  12.1739  12.3902  12.7071  12.8755  13.0961  13.4410  13.5244
    13.7245  14.1846  14.3389  14.4236

     occupation numbers 
     1.0000   1.0000   1.0000   1.0000   1.0000   1.0000   1.0000   1.0000
     1.0000   1.0000   1.0000   1.0000   1.0000   0.0000   0.0000   0.0000
     0.0000   0.0000   0.0000   0.0000   0.0000   0.0000   0.0000   0.0000
     0.0000   0.0000   0.0000   0.0000   0.0000   0.0000   0.0000   0.0000
     0.0000   0.0000   0.0000   0.0000   0.0000   0.0000   0.0000   0.0000
     0.0000   0.0000   0.0000   0.0000   0.0000   0.0000   0.0000   0.0000
     0.0000   0.0000   0.0000   0.0000   0.0000   0.0000   0.0000   0.0000
     0.0000   0.0000   0.0000   0.0000

          k = 0.2833 0.5677 0.0000 ( 20131 PWs)   bands (ev):

   -24.3386 -24.1542 -24.1295 -24.0268 -23.8965 -23.8699 -23.7350 -23.7322
   -23.7196 -23.5592 -10.0391  -9.5698  -5.7882  -2.1425  -1.6952   1.2871
     2.1878   2.3174   3.4920   3.6959   4.1317   4.7491   4.8450   5.0146
     5.0819   5.2605   5.6296   5.8136   6.2037   6.4060   6.4738   6.6363
     7.1021   7.2233   8.3261   8.4883   8.5619   8.7513   8.9456   9.1060
     9.4008   9.5322   9.7762  10.1800  10.9956  11.7669  11.8302  11.9572
    12.0819  12.1097  12.3510  12.7152  12.8612  13.2355  13.4362  13.5352
    13.7258  14.1468  14.3087  14.6341

     occupation numbers 
     1.0000   1.0000   1.0000   1.0000   1.0000   1.0000   1.0000   1.0000
     1.0000   1.0000   1.0000   1.0000   1.0000   0.0000   0.0000   0.0000
     0.0000   0.0000   0.0000   0.0000   0.0000   0.0000   0.0000   0.0000
     0.0000   0.0000   0.0000   0.0000   0.0000   0.0000   0.0000   0.0000
     0.0000   0.0000   0.0000   0.0000   0.0000   0.0000   0.0000   0.0000
     0.0000   0.0000   0.0000   0.0000   0.0000   0.0000   0.0000   0.0000
     0.0000   0.0000   0.0000   0.0000   0.0000   0.0000   0.0000   0.0000
     0.0000   0.0000   0.0000   0.0000

          k = 0.3000 0.5196 0.0000 ( 20127 PWs)   bands (ev):

   -24.3368 -24.1557 -24.1281 -24.0264 -23.9010 -23.8654 -23.7353 -23.7320
   -23.7199 -23.5611 -10.1538  -9.4446  -5.7638  -2.2515  -1.5789   1.3062
     2.0762   2.2122   3.3030   4.0640   4.1817   4.5227   4.6938   5.0389
     5.3019   5.5781   5.6431   5.7062   6.0172   6.1830   6.7401   6.9596
     7.0820   7.1722   8.2246   8.3518   8.4838   8.5293   9.0758   9.2966
     9.3518   9.4818   9.5390  10.6323  11.2913  11.5672  11.5769  11.6918
    12.3147  12.3824  12.5404  12.5546  12.8276  12.8676  13.5252  13.7456
    13.7482  13.8673  13.9420  14.4173

     occupation numbers 
     1.0000   1.0000   1.0000   1.0000   1.0000   1.0000   1.0000   1.0000
     1.0000   1.0000   1.0000   1.0000   1.0000   0.1857   0.0000   0.0000
     0.0000   0.0000   0.0000   0.0000   0.0000   0.0000   0.0000   0.0000
     0.0000   0.0000   0.0000   0.0000   0.0000   0.0000   0.0000   0.0000
     0.0000   0.0000   0.0000   0.0000   0.0000   0.0000   0.0000   0.0000
     0.0000   0.0000   0.0000   0.0000   0.0000   0.0000   0.0000   0.0000
     0.0000   0.0000   0.0000   0.0000   0.0000   0.0000   0.0000   0.0000
     0.0000   0.0000   0.0000   0.0000

          k = 0.3000 0.5389 0.0000 ( 20143 PWs)   bands (ev):

   -24.3385 -24.1527 -24.1308 -24.0268 -23.8967 -23.8696 -23.7350 -23.7311
   -23.7211 -23.5593 -10.0662  -9.5386  -5.7911  -2.1677  -1.6668   1.4201
     2.1158   2.1846   3.3928   3.8986   4.1075   4.6468   4.7773   5.0246
     5.2017   5.5110   5.5422   5.6723   6.1164   6.2984   6.6450   6.8539
     7.0231   7.1150   8.3379   8.5256   8.5702   8.6124   9.1725   9.1843
     9.3059   9.4250   9.5168  10.3716  11.2370  11.6550  11.6828  11.8388
    12.2204  12.3320  12.4789  12.6434  12.8076  12.9019  13.5902  13.7351
    13.8797  14.0346  14.1483  14.2449

     occupation numbers 
     1.0000   1.0000   1.0000   1.0000   1.0000   1.0000   1.0000   1.0000
     1.0000   1.0000   1.0000   1.0000   1.0000   0.0000   0.0000   0.0000
     0.0000   0.0000   0.0000   0.0000   0.0000   0.0000   0.0000   0.0000
     0.0000   0.0000   0.0000   0.0000   0.0000   0.0000   0.0000   0.0000
     0.0000   0.0000   0.0000   0.0000   0.0000   0.0000   0.0000   0.0000
     0.0000   0.0000   0.0000   0.0000   0.0000   0.0000   0.0000   0.0000
     0.0000   0.0000   0.0000   0.0000   0.0000   0.0000   0.0000   0.0000
     0.0000   0.0000   0.0000   0.0000

          k = 0.3000 0.5581 0.0000 ( 20132 PWs)   bands (ev):

   -24.3395 -24.1505 -24.1328 -24.0270 -23.8934 -23.8730 -23.7348 -23.7304
   -23.7218 -23.5581  -9.9932  -9.6154  -5.8076  -2.0981  -1.7388   1.4869
     2.1559   2.1680   3.4622   3.7774   4.0537   4.7652   4.8078   5.0882
     5.0917   5.3680   5.5221   5.6625   6.2221   6.4172   6.5405   6.7319
     6.9929   7.0912   8.4353   8.5645   8.6370   8.7451   9.0538   9.2116
     9.2843   9.4008   9.5933  10.1392  11.1851  11.7156  11.7896  11.9712
    12.1244  12.2224  12.4546  12.6672  12.7737  13.0671  13.6032  13.7280
    13.8408  14.1448  14.3275  14.4017

     occupation numbers 
     1.0000   1.0000   1.0000   1.0000   1.0000   1.0000   1.0000   1.0000
     1.0000   1.0000   1.0000   1.0000   1.0000   0.0000   0.0000   0.0000
     0.0000   0.0000   0.0000   0.0000   0.0000   0.0000   0.0000   0.0000
     0.0000   0.0000   0.0000   0.0000   0.0000   0.0000   0.0000   0.0000
     0.0000   0.0000   0.0000   0.0000   0.0000   0.0000   0.0000   0.0000
     0.0000   0.0000   0.0000   0.0000   0.0000   0.0000   0.0000   0.0000
     0.0000   0.0000   0.0000   0.0000   0.0000   0.0000   0.0000   0.0000
     0.0000   0.0000   0.0000   0.0000

          k = 0.3000 0.5774 0.0000 ( 20129 PWs)   bands (ev):

   -24.3399 -24.1496 -24.1336 -24.0270 -23.8920 -23.8744 -23.7347 -23.7302
   -23.7221 -23.5578  -9.9610  -9.6489  -5.8131  -2.0675  -1.7702   1.5084
     2.1624   2.1733   3.4908   3.7311   4.0326   4.8110   4.8342   5.0245
     5.1660   5.2704   5.5159   5.6595   6.2847   6.4779   6.4940   6.6529
     6.9838   7.0846   8.4940   8.5368   8.6758   8.8379   8.9612   9.2022
     9.2907   9.3937   9.6747  10.0143  11.1646  11.7381  11.8461  12.0711
    12.0806  12.1158  12.4483  12.6710  12.7628  13.1688  13.5557  13.7256
    13.8259  14.2262  14.3048  14.6182

     occupation numbers 
     1.0000   1.0000   1.0000   1.0000   1.0000   1.0000   1.0000   1.0000
     1.0000   1.0000   1.0000   1.0000   1.0000   0.0000   0.0000   0.0000
     0.0000   0.0000   0.0000   0.0000   0.0000   0.0000   0.0000   0.0000
     0.0000   0.0000   0.0000   0.0000   0.0000   0.0000   0.0000   0.0000
     0.0000   0.0000   0.0000   0.0000   0.0000   0.0000   0.0000   0.0000
     0.0000   0.0000   0.0000   0.0000   0.0000   0.0000   0.0000   0.0000
     0.0000   0.0000   0.0000   0.0000   0.0000   0.0000   0.0000   0.0000
     0.0000   0.0000   0.0000   0.0000

          k = 0.3167 0.5485 0.0000 ( 20139 PWs)   bands (ev):

   -24.3399 -24.1488 -24.1342 -24.0270 -23.8921 -23.8743 -23.7347 -23.7296
   -23.7228 -23.5578  -9.9752  -9.6334  -5.8141  -2.0807  -1.7560   1.5847
     2.0706   2.1613   3.4518   3.8179   4.0157   4.7691   4.7940   5.0874
     5.1321   5.4690   5.4728   5.5506   6.2265   6.4193   6.5765   6.7911
     6.9446   7.0215   8.4565   8.6229   8.6666   8.7378   9.1193   9.1981
     9.3285   9.3353   9.4711  10.1281  11.2918  11.6273  11.7961  11.9679
    12.1439  12.3457  12.3770  12.7402  12.7774  12.9218  13.5763  14.0221
    14.0284  14.0519  14.1151  14.2688

     occupation numbers 
     1.0000   1.0000   1.0000   1.0000   1.0000   1.0000   1.0000   1.0000
     1.0000   1.0000   1.0000   1.0000   1.0000   0.0000   0.0000   0.0000
     0.0000   0.0000   0.0000   0.0000   0.0000   0.0000   0.0000   0.0000
     0.0000   0.0000   0.0000   0.0000   0.0000   0.0000   0.0000   0.0000
     0.0000   0.0000   0.0000   0.0000   0.0000   0.0000   0.0000   0.0000
     0.0000   0.0000   0.0000   0.0000   0.0000   0.0000   0.0000   0.0000
     0.0000   0.0000   0.0000   0.0000   0.0000   0.0000   0.0000   0.0000
     0.0000   0.0000   0.0000   0.0000

          k = 0.3167 0.5677 0.0000 ( 20126 PWs)   bands (ev):

   -24.3405 -24.1459 -24.1370 -24.0272 -23.8883 -23.8781 -23.7346 -23.7284
   -23.7241 -23.5571  -9.8998  -9.7107  -5.8256  -2.0088  -1.8289   1.6912
     2.0298   2.1497   3.4725   3.7958   3.9541   4.7866   4.8782   5.0473
     5.1983   5.3540   5.4386   5.5194   6.3292   6.4949   6.5341   6.6999
     6.9063   6.9807   8.5511   8.6139   8.7411   8.8598   9.0212   9.2006
     9.2867   9.3392   9.5357   9.9402  11.3214  11.6012  11.8939  12.0647
    12.0999  12.2321  12.3632  12.7065  12.8263  13.0481  13.4588  14.0205
    14.0794  14.2101  14.3206  14.4275

     occupation numbers 
     1.0000   1.0000   1.0000   1.0000   1.0000   1.0000   1.0000   1.0000
     1.0000   1.0000   1.0000   1.0000   1.0000   0.0000   0.0000   0.0000
     0.0000   0.0000   0.0000   0.0000   0.0000   0.0000   0.0000   0.0000
     0.0000   0.0000   0.0000   0.0000   0.0000   0.0000   0.0000   0.0000
     0.0000   0.0000   0.0000   0.0000   0.0000   0.0000   0.0000   0.0000
     0.0000   0.0000   0.0000   0.0000   0.0000   0.0000   0.0000   0.0000
     0.0000   0.0000   0.0000   0.0000   0.0000   0.0000   0.0000   0.0000
     0.0000   0.0000   0.0000   0.0000

          k = 0.3333 0.5774 0.0000 ( 20133 PWs)   bands (ev):

   -24.3409 -24.1414 -24.1414 -24.0272 -23.8832 -23.8832 -23.7345 -23.7263
   -23.7263 -23.5567  -9.8055  -9.8055  -5.8316  -1.9190  -1.9190   1.8740
     1.8740   2.1435   3.4677   3.8651   3.8651   4.7766   4.9761   4.9761
     5.3099   5.3099   5.4067   5.4389   6.4242   6.4242   6.6355   6.6355
     6.8739   6.9352   8.6128   8.6128   8.7785   8.9586   8.9586   9.1739
     9.2379   9.4564   9.4564   9.8527  11.4628  11.4628  11.9873  11.9873
    12.2302  12.2302  12.2397  12.6828  12.9872  12.9872  13.3604  14.2460
    14.2460  14.3081  14.3235  14.3235

     occupation numbers 
     1.0000   1.0000   1.0000   1.0000   1.0000   1.0000   1.0000   1.0000
     1.0000   1.0000   1.0000   1.0000   1.0000   0.0000   0.0000   0.0000
     0.0000   0.0000   0.0000   0.0000   0.0000   0.0000   0.0000   0.0000
     0.0000   0.0000   0.0000   0.0000   0.0000   0.0000   0.0000   0.0000
     0.0000   0.0000   0.0000   0.0000   0.0000   0.0000   0.0000   0.0000
     0.0000   0.0000   0.0000   0.0000   0.0000   0.0000   0.0000   0.0000
     0.0000   0.0000   0.0000   0.0000   0.0000   0.0000   0.0000   0.0000
     0.0000   0.0000   0.0000   0.0000

     the Fermi energy is    -2.2752 ev
     (compare with:    -2.2762 eV, computed in scf)

     Writing all to output data dir ../tmp/stanene.save/

     init_run     :      2.89s CPU      5.11s WALL (       1 calls)
     electrons    :  18843.48s CPU  24462.20s WALL (       1 calls)

     Called by init_run:
     wfcinit      :      0.00s CPU      0.01s WALL (       1 calls)
     wfcinit:atom :      0.50s CPU      0.40s WALL (     331 calls)
     wfcinit:wfcr :    292.40s CPU    423.18s WALL (     331 calls)
     potinit      :      0.39s CPU      0.41s WALL (       1 calls)
     hinit0       :      0.52s CPU      0.53s WALL (       1 calls)

     Called by electrons:
     c_bands      :  18842.72s CPU  24461.41s WALL (       1 calls)
     v_of_rho     :      0.19s CPU      0.20s WALL (       1 calls)
     v_h          :      0.01s CPU      0.01s WALL (       1 calls)
     v_xc         :      0.18s CPU      0.19s WALL (       1 calls)
     newd         :      1.65s CPU      3.79s WALL (       1 calls)

     Called by c_bands:
     init_us_2    :      0.47s CPU      0.44s WALL (     331 calls)
     init_us_2:cp :      0.47s CPU      0.44s WALL (     331 calls)
     cegterg      :  18503.37s CPU  23992.58s WALL (    1114 calls)

     Called by sum_band:

     Called by *egterg:
     cdiaghg      :   3895.37s CPU   3359.23s WALL (   19422 calls)
     cegterg:over :   5315.61s CPU   7865.66s WALL (   19091 calls)
     cegterg:upda :    608.64s CPU   1004.25s WALL (   19091 calls)
     cegterg:last :    787.27s CPU   1125.08s WALL (    9736 calls)
     h_psi        :   6042.21s CPU   8517.34s WALL (   20536 calls)
     s_psi        :    216.38s CPU    366.22s WALL (   20536 calls)
     g_psi        :      9.30s CPU      8.10s WALL (   19091 calls)

     Called by h_psi:
     h_psi:calbec :   3235.95s CPU   5272.79s WALL (   20536 calls)
     vloc_psi     :   2239.71s CPU   2055.84s WALL (   20536 calls)
     add_vuspsi   :    554.99s CPU   1176.18s WALL (   20536 calls)

     General routines
     calbec       :   3235.75s CPU   5270.49s WALL (   20536 calls)
     fft          :      0.45s CPU      0.46s WALL (      13 calls)
     ffts         :      0.18s CPU      0.18s WALL (       1 calls)
     fftw         :   1976.69s CPU   1776.45s WALL ( 1113884 calls)
     interpolate  :      0.18s CPU      0.19s WALL (       1 calls)
     davcio       :      9.54s CPU     47.04s WALL (     662 calls)

     Parallel routines

     PWSCF        :      5h14m CPU      6h49m WALL


   This run was terminated on:   2:39:13  27Jun2024            

=------------------------------------------------------------------------------=
   JOB DONE.
=------------------------------------------------------------------------------=
