
     Program PWSCF v.6.7MaX starts on 20Jan2024 at  0:29:24 

     This program is part of the open-source Quantum ESPRESSO suite
     for quantum simulation of materials; please cite
         "P. Giannozzi et al., J. Phys.:Condens. Matter 21 395502 (2009);
         "P. Giannozzi et al., J. Phys.:Condens. Matter 29 465901 (2017);
          URL http://www.quantum-espresso.org", 
     in publications or presentations arising from this work. More details at
     http://www.quantum-espresso.org/quote

     Parallel version (MPI), running on     6 processors

     MPI processes distributed on     1 nodes
     R & G space division:  proc/nbgrp/npool/nimage =       6
     Waiting for input...
     Reading input from standard input

     Current dimensions of program PWSCF are:
     Max number of different atomic species (ntypx) = 10
     Max number of k-points (npk) =  40000
     Max angular momentum in pseudopotentials (lmaxx) =  3

     Subspace diagonalization in iterative solution of the eigenvalue problem:
     one sub-group per band group will be used
     scalapack distributed-memory algorithm (size of sub-group:  2*  2 procs)


     Parallelization info
     --------------------
     sticks:   dense  smooth     PW     G-vecs:    dense   smooth      PW
     Min         360     360     97                57622    57622    8273
     Max         361     361     98                57637    57637    8296
     Sum        2161    2161    583               345769   345769   49669



     bravais-lattice index     =            4
     lattice parameter (alat)  =       8.8439  a.u.
     unit-cell volume          =    2560.0529 (a.u.)^3
     number of atoms/cell      =            2
     number of atomic types    =            1
     number of electrons       =        28.00
     number of Kohn-Sham states=           14
     kinetic-energy cutoff     =     100.0000  Ry
     charge density cutoff     =     400.0000  Ry
     scf convergence threshold =      1.0E-06
     mixing beta               =       0.7000
     number of iterations used =            8  plain     mixing
     Exchange-correlation= SLA  PW   PBE  PBE
                           (   1   4   3   4   0   0   0)

     celldm(1)=   8.843918  celldm(2)=   0.000000  celldm(3)=   4.273504
     celldm(4)=   0.000000  celldm(5)=   0.000000  celldm(6)=   0.000000

     crystal axes: (cart. coord. in units of alat)
               a(1) = (   1.000000   0.000000   0.000000 )  
               a(2) = (  -0.500000   0.866025   0.000000 )  
               a(3) = (   0.000000   0.000000   4.273504 )  

     reciprocal axes: (cart. coord. in units 2 pi/alat)
               b(1) = (  1.000000  0.577350 -0.000000 )  
               b(2) = (  0.000000  1.154701  0.000000 )  
               b(3) = (  0.000000 -0.000000  0.234000 )  


     PseudoPot. # 1 for Sn read from file:
     ../pseudo/Sn_pbe_v1.uspp.F.UPF
     MD5 check sum: 4cf58ce39ec5d5d420df3dd08604eb00
     Pseudo is Ultrasoft + core correction, Zval = 14.0
     Generated by new atomic code, or converted to UPF format
     Using radial grid of  891 points,  6 beta functions with: 
                l(1) =   0
                l(2) =   0
                l(3) =   1
                l(4) =   1
                l(5) =   2
                l(6) =   2
     Q(r) pseudized with  6 coefficients,  rinner =    1.200   1.200   1.200
                                                       1.200   1.200

     atomic species   valence    mass     pseudopotential
        Sn            14.00   118.71000     Sn( 1.00)

     24 Sym. Ops., with inversion, found



   Cartesian axes

     site n.     atom                  positions (alat units)
         1           Sn  tau(   1) = (   0.0000000   0.5773503   2.1367521  )
         2           Sn  tau(   2) = (   0.5000000   0.2886751   2.1367521  )

     number of k points=    61
                       cart. coord. in units 2pi/alat
        k(    1) = (   0.0000000   0.0000000   0.0000000), wk =   0.0034722
        k(    2) = (   0.0000000   0.0481125   0.0000000), wk =   0.0208333
        k(    3) = (   0.0000000   0.0962250   0.0000000), wk =   0.0208333
        k(    4) = (   0.0000000   0.1443376   0.0000000), wk =   0.0208333
        k(    5) = (   0.0000000   0.1924501   0.0000000), wk =   0.0208333
        k(    6) = (   0.0000000   0.2405626   0.0000000), wk =   0.0208333
        k(    7) = (   0.0000000   0.2886751   0.0000000), wk =   0.0208333
        k(    8) = (   0.0000000   0.3367877   0.0000000), wk =   0.0208333
        k(    9) = (   0.0000000   0.3849002   0.0000000), wk =   0.0208333
        k(   10) = (   0.0000000   0.4330127   0.0000000), wk =   0.0208333
        k(   11) = (   0.0000000   0.4811252   0.0000000), wk =   0.0208333
        k(   12) = (   0.0000000   0.5292377   0.0000000), wk =   0.0208333
        k(   13) = (   0.0000000  -0.5773503   0.0000000), wk =   0.0104167
        k(   14) = (   0.0416667   0.0721688   0.0000000), wk =   0.0208333
        k(   15) = (   0.0416667   0.1202813   0.0000000), wk =   0.0416667
        k(   16) = (   0.0416667   0.1683938   0.0000000), wk =   0.0416667
        k(   17) = (   0.0416667   0.2165064   0.0000000), wk =   0.0416667
        k(   18) = (   0.0416667   0.2646189   0.0000000), wk =   0.0416667
        k(   19) = (   0.0416667   0.3127314   0.0000000), wk =   0.0416667
        k(   20) = (   0.0416667   0.3608439   0.0000000), wk =   0.0416667
        k(   21) = (   0.0416667   0.4089564   0.0000000), wk =   0.0416667
        k(   22) = (   0.0416667   0.4570690   0.0000000), wk =   0.0416667
        k(   23) = (   0.0416667   0.5051815   0.0000000), wk =   0.0416667
        k(   24) = (   0.0416667   0.5532940   0.0000000), wk =   0.0416667
        k(   25) = (   0.0833333   0.1443376   0.0000000), wk =   0.0208333
        k(   26) = (   0.0833333   0.1924501   0.0000000), wk =   0.0416667
        k(   27) = (   0.0833333   0.2405626   0.0000000), wk =   0.0416667
        k(   28) = (   0.0833333   0.2886751   0.0000000), wk =   0.0416667
        k(   29) = (   0.0833333   0.3367877   0.0000000), wk =   0.0416667
        k(   30) = (   0.0833333   0.3849002   0.0000000), wk =   0.0416667
        k(   31) = (   0.0833333   0.4330127   0.0000000), wk =   0.0416667
        k(   32) = (   0.0833333   0.4811252   0.0000000), wk =   0.0416667
        k(   33) = (   0.0833333   0.5292377   0.0000000), wk =   0.0416667
        k(   34) = (   0.0833333   0.5773503   0.0000000), wk =   0.0208333
        k(   35) = (   0.1250000   0.2165064   0.0000000), wk =   0.0208333
        k(   36) = (   0.1250000   0.2646189   0.0000000), wk =   0.0416667
        k(   37) = (   0.1250000   0.3127314   0.0000000), wk =   0.0416667
        k(   38) = (   0.1250000   0.3608439   0.0000000), wk =   0.0416667
        k(   39) = (   0.1250000   0.4089564   0.0000000), wk =   0.0416667
        k(   40) = (   0.1250000   0.4570690   0.0000000), wk =   0.0416667
        k(   41) = (   0.1250000   0.5051815   0.0000000), wk =   0.0416667
        k(   42) = (   0.1250000   0.5532940   0.0000000), wk =   0.0416667
        k(   43) = (   0.1666667   0.2886751   0.0000000), wk =   0.0208333
        k(   44) = (   0.1666667   0.3367877   0.0000000), wk =   0.0416667
        k(   45) = (   0.1666667   0.3849002   0.0000000), wk =   0.0416667
        k(   46) = (   0.1666667   0.4330127   0.0000000), wk =   0.0416667
        k(   47) = (   0.1666667   0.4811252   0.0000000), wk =   0.0416667
        k(   48) = (   0.1666667   0.5292377   0.0000000), wk =   0.0416667
        k(   49) = (   0.1666667   0.5773503   0.0000000), wk =   0.0208333
        k(   50) = (   0.2083333   0.3608439   0.0000000), wk =   0.0208333
        k(   51) = (   0.2083333   0.4089564   0.0000000), wk =   0.0416667
        k(   52) = (   0.2083333   0.4570690   0.0000000), wk =   0.0416667
        k(   53) = (   0.2083333   0.5051815   0.0000000), wk =   0.0416667
        k(   54) = (   0.2083333   0.5532940   0.0000000), wk =   0.0416667
        k(   55) = (   0.2500000   0.4330127   0.0000000), wk =   0.0208333
        k(   56) = (   0.2500000   0.4811252   0.0000000), wk =   0.0416667
        k(   57) = (   0.2500000   0.5292377   0.0000000), wk =   0.0416667
        k(   58) = (   0.2500000   0.5773503   0.0000000), wk =   0.0208333
        k(   59) = (   0.2916667   0.5051815   0.0000000), wk =   0.0208333
        k(   60) = (   0.2916667   0.5532940   0.0000000), wk =   0.0416667
        k(   61) = (   0.3333333   0.5773503   0.0000000), wk =   0.0069444

     Dense  grid:   345769 G-vectors     FFT dimensions: (  60,  60, 243)

     Estimated max dynamical RAM per process >     300.40 MB

     Estimated total dynamical RAM >       1.76 GB

     Initial potential from superposition of free atoms

     starting charge   25.99991, renormalised to   28.00000

     negative rho (up, down):  4.869E-04 0.000E+00
     Starting wfcs are   18 randomized atomic wfcs

     total cpu time spent up to now is       14.0 secs

     Self-consistent Calculation

     iteration #  1     ecut=   100.00 Ry     beta= 0.70
     Davidson diagonalization with overlap
     ethr =  1.00E-02,  avg # of iterations =  2.0

     negative rho (up, down):  6.486E-04 0.000E+00

     total cpu time spent up to now is       49.2 secs

     total energy              =    -325.49755415 Ry
     estimated scf accuracy    <       2.41000168 Ry

     iteration #  2     ecut=   100.00 Ry     beta= 0.70
     Davidson diagonalization with overlap
     ethr =  8.61E-03,  avg # of iterations =  2.0

     negative rho (up, down):  7.968E-04 0.000E+00

     total cpu time spent up to now is       85.9 secs

     total energy              =    -326.34906813 Ry
     estimated scf accuracy    <       0.29322914 Ry

     iteration #  3     ecut=   100.00 Ry     beta= 0.70
     Davidson diagonalization with overlap
     ethr =  1.05E-03,  avg # of iterations =  2.1

     negative rho (up, down):  9.338E-04 0.000E+00

     total cpu time spent up to now is      126.3 secs

     total energy              =    -326.38858001 Ry
     estimated scf accuracy    <       0.00610699 Ry

     iteration #  4     ecut=   100.00 Ry     beta= 0.70
     Davidson diagonalization with overlap
     ethr =  2.18E-05,  avg # of iterations =  2.9

     negative rho (up, down):  9.203E-04 0.000E+00

     total cpu time spent up to now is      165.4 secs

     total energy              =    -326.39109849 Ry
     estimated scf accuracy    <       0.00099038 Ry

     iteration #  5     ecut=   100.00 Ry     beta= 0.70
     Davidson diagonalization with overlap
     ethr =  3.54E-06,  avg # of iterations =  2.3

     negative rho (up, down):  9.133E-04 0.000E+00

     total cpu time spent up to now is      204.9 secs

     total energy              =    -326.39135390 Ry
     estimated scf accuracy    <       0.00001023 Ry

     iteration #  6     ecut=   100.00 Ry     beta= 0.70
     Davidson diagonalization with overlap
     ethr =  3.65E-08,  avg # of iterations =  4.9

     negative rho (up, down):  9.144E-04 0.000E+00

     total cpu time spent up to now is      246.6 secs

     End of self-consistent calculation

          k = 0.0000 0.0000 0.0000 ( 43207 PWs)   bands (ev):

   -24.2037 -24.2037 -24.2034 -24.0881 -24.0881 -23.9402 -23.9402 -23.8563
   -23.8563 -23.7944 -12.2889  -4.3397  -3.7545  -3.4304

          k = 0.0000 0.0481 0.0000 ( 43205 PWs)   bands (ev):

   -24.2083 -24.2081 -24.2031 -24.0884 -24.0874 -23.9358 -23.9352 -23.8571
   -23.8560 -23.7944 -12.2740  -4.3243  -4.2022  -3.4640

          k = 0.0000 0.0962 0.0000 ( 43115 PWs)   bands (ev):

   -24.2209 -24.2207 -24.2021 -24.0896 -24.0853 -23.9238 -23.9212 -23.8595
   -23.8548 -23.7940 -12.2296  -4.7823  -4.2783  -3.5580

          k = 0.0000 0.1443 0.0000 ( 43151 PWs)   bands (ev):

   -24.2388 -24.2386 -24.2005 -24.0913 -24.0820 -23.9071 -23.9012 -23.8632
   -23.8531 -23.7930 -12.1558  -5.3634  -4.2021  -3.6957

          k = 0.0000 0.1925 0.0000 ( 43191 PWs)   bands (ev):

   -24.2594 -24.2593 -24.1984 -24.0936 -24.0775 -23.8890 -23.8779 -23.8684
   -23.8508 -23.7908 -12.0530  -5.9334  -4.0964  -3.8577

          k = 0.0000 0.2406 0.0000 ( 43196 PWs)   bands (ev):

   -24.2809 -24.2805 -24.1959 -24.0962 -24.0720 -23.8746 -23.8723 -23.8535
   -23.8483 -23.7863 -11.9219  -6.4859  -4.0274  -3.9623

          k = 0.0000 0.2887 0.0000 ( 43236 PWs)   bands (ev):

   -24.3017 -24.3008 -24.1932 -24.0989 -24.0657 -23.8817 -23.8595 -23.8456
   -23.8297 -23.7788 -11.7636  -7.0158  -4.1920  -3.8016

          k = 0.0000 0.3368 0.0000 ( 43232 PWs)   bands (ev):

   -24.3208 -24.3193 -24.1905 -24.1015 -24.0588 -23.8893 -23.8514 -23.8429
   -23.8078 -23.7684 -11.5804  -7.5179  -4.3426  -3.6171

          k = 0.0000 0.3849 0.0000 ( 43226 PWs)   bands (ev):

   -24.3372 -24.3351 -24.1879 -24.1039 -24.0519 -23.8970 -23.8471 -23.8405
   -23.7887 -23.7568 -11.3763  -7.9859  -4.4726  -3.4134

          k = 0.0000 0.4330 0.0000 ( 43224 PWs)   bands (ev):

   -24.3506 -24.3479 -24.1857 -24.1060 -24.0453 -23.9043 -23.8452 -23.8385
   -23.7731 -23.7459 -11.1592  -8.4101  -4.5776  -3.1992

          k = 0.0000 0.4811 0.0000 ( 43254 PWs)   bands (ev):

   -24.3603 -24.3573 -24.1839 -24.1075 -24.0397 -23.9103 -23.8445 -23.8370
   -23.7615 -23.7372 -10.9458  -8.7723  -4.6545  -2.9912

          k = 0.0000 0.5292 0.0000 ( 43244 PWs)   bands (ev):

   -24.3663 -24.3631 -24.1828 -24.1085 -24.0360 -23.9143 -23.8443 -23.8360
   -23.7545 -23.7317 -10.7722  -9.0356  -4.7014  -2.8244

          k = 0.0000-0.5774 0.0000 ( 43222 PWs)   bands (ev):

   -24.3683 -24.3650 -24.1824 -24.1088 -24.0346 -23.9158 -23.8442 -23.8357
   -23.7521 -23.7298 -10.7007  -9.1371  -4.7171  -2.7564

          k = 0.0417 0.0722 0.0000 ( 43134 PWs)   bands (ev):

   -24.2196 -24.2132 -24.2032 -24.0892 -24.0860 -23.9277 -23.9256 -23.8587
   -23.8552 -23.7941 -12.2444  -4.6250  -4.2936  -3.5315

          k = 0.0417 0.1203 0.0000 ( 43143 PWs)   bands (ev):

   -24.2373 -24.2253 -24.2024 -24.0907 -24.0833 -23.9135 -23.9087 -23.8618
   -23.8537 -23.7934 -12.1853  -5.1555  -4.2325  -3.6560

          k = 0.0417 0.1684 0.0000 ( 43176 PWs)   bands (ev):

   -24.2587 -24.2420 -24.2007 -24.0927 -24.0793 -23.8962 -23.8873 -23.8663
   -23.8517 -23.7918 -12.0970  -5.7054  -4.1415  -3.8157

          k = 0.0417 0.2165 0.0000 ( 43189 PWs)   bands (ev):

   -24.2814 -24.2608 -24.1984 -24.0952 -24.0742 -23.8787 -23.8721 -23.8642
   -23.8492 -23.7882 -11.9799  -6.2512  -4.0215  -3.9908

          k = 0.0417 0.2646 0.0000 ( 43196 PWs)   bands (ev):

   -24.3039 -24.2798 -24.1958 -24.0979 -24.0682 -23.8788 -23.8640 -23.8466
   -23.8413 -23.7815 -11.8351  -6.7822  -4.1660  -3.8740

          k = 0.0417 0.3127 0.0000 ( 43211 PWs)   bands (ev):

   -24.3248 -24.2978 -24.1931 -24.1006 -24.0615 -23.8863 -23.8537 -23.8438
   -23.8199 -23.7713 -11.6641  -7.2914  -4.3300  -3.7011

          k = 0.0417 0.3608 0.0000 ( 43215 PWs)   bands (ev):

   -24.3433 -24.3138 -24.1904 -24.1032 -24.0544 -23.8941 -23.8479 -23.8413
   -23.8009 -23.7587 -11.4698  -7.7720  -4.4753  -3.5063

          k = 0.0417 0.4090 0.0000 ( 43228 PWs)   bands (ev):

   -24.3588 -24.3273 -24.1880 -24.1055 -24.0474 -23.9018 -23.8452 -23.8390
   -23.7849 -23.7460 -11.2577  -8.2160  -4.5965  -3.2959

          k = 0.0417 0.4571 0.0000 ( 43259 PWs)   bands (ev):

   -24.3708 -24.3378 -24.1860 -24.1073 -24.0412 -23.9086 -23.8441 -23.8372
   -23.7725 -23.7350 -11.0392  -8.6100  -4.6902  -3.0816

          k = 0.0417 0.5052 0.0000 ( 43253 PWs)   bands (ev):

   -24.3790 -24.3449 -24.1845 -24.1086 -24.0363 -23.9138 -23.8438 -23.8359
   -23.7640 -23.7271 -10.8388  -8.9281  -4.7538  -2.8877

          k = 0.0417 0.5533 0.0000 ( 43270 PWs)   bands (ev):

   -24.3831 -24.3485 -24.1838 -24.1093 -24.0336 -23.9167 -23.8437 -23.8353
   -23.7597 -23.7229 -10.7069  -9.1191  -4.7859  -2.7617

          k = 0.0833 0.1443 0.0000 ( 43168 PWs)   bands (ev):

   -24.2585 -24.2346 -24.2027 -24.0925 -24.0799 -23.8989 -23.8906 -23.8657
   -23.8519 -23.7920 -12.1116  -5.6198  -4.1566  -3.8151

          k = 0.0833 0.1925 0.0000 ( 43161 PWs)   bands (ev):

   -24.2818 -24.2480 -24.2018 -24.0949 -24.0752 -23.8823 -23.8709 -23.8703
   -23.8496 -23.7887 -12.0090  -6.1165  -4.0513  -4.0051

          k = 0.0833 0.2406 0.0000 ( 43173 PWs)   bands (ev):

   -24.3055 -24.2633 -24.2000 -24.0976 -24.0694 -23.8773 -23.8665 -23.8503
   -23.8470 -23.7822 -11.8782  -6.6192  -4.2022  -3.9177

          k = 0.0833 0.2887 0.0000 ( 43189 PWs)   bands (ev):

   -24.3280 -24.2789 -24.1977 -24.1004 -24.0628 -23.8847 -23.8543 -23.8442
   -23.8319 -23.7715 -11.7202  -7.1139  -4.3907  -3.7575

          k = 0.0833 0.3368 0.0000 ( 43211 PWs)   bands (ev):

   -24.3485 -24.2936 -24.1951 -24.1032 -24.0556 -23.8927 -23.8471 -23.8414
   -23.8151 -23.7573 -11.5371  -7.5906  -4.5608  -3.5734

          k = 0.0833 0.3849 0.0000 ( 43221 PWs)   bands (ev):

   -24.3662 -24.3065 -24.1927 -24.1057 -24.0481 -23.9008 -23.8437 -23.8389
   -23.8003 -23.7424 -11.3329  -8.0405  -4.7060  -3.3699

          k = 0.0833 0.4330 0.0000 ( 43228 PWs)   bands (ev):

   -24.3804 -24.3171 -24.1905 -24.1079 -24.0410 -23.9084 -23.8424 -23.8368
   -23.7880 -23.7289 -11.1151  -8.4526  -4.8223  -3.1551

          k = 0.0833 0.4811 0.0000 ( 43235 PWs)   bands (ev):

   -24.3909 -24.3249 -24.1888 -24.1095 -24.0350 -23.9149 -23.8422 -23.8352
   -23.7788 -23.7185 -10.9000  -8.8080  -4.9069  -2.9455

          k = 0.0833 0.5292 0.0000 ( 43250 PWs)   bands (ev):

   -24.3973 -24.3297 -24.1877 -24.1105 -24.0308 -23.9194 -23.8422 -23.8342
   -23.7731 -23.7119 -10.7234  -9.0694  -4.9583  -2.7758

          k = 0.0833 0.5774 0.0000 ( 43258 PWs)   bands (ev):

   -24.3994 -24.3313 -24.1873 -24.1108 -24.0293 -23.9209 -23.8423 -23.8339
   -23.7712 -23.7097 -10.6500  -9.1712  -4.9756  -2.7060

          k = 0.1250 0.2165 0.0000 ( 43196 PWs)   bands (ev):

   -24.3060 -24.2566 -24.2024 -24.0975 -24.0698 -23.8769 -23.8672 -23.8537
   -23.8470 -23.7824 -11.8925  -6.5596  -4.2256  -3.9323

          k = 0.1250 0.2646 0.0000 ( 43195 PWs)   bands (ev):

   -24.3297 -24.2672 -24.2019 -24.1004 -24.0633 -23.8841 -23.8534 -23.8442
   -23.8399 -23.7712 -11.7483  -7.0137  -4.4474  -3.7858

          k = 0.1250 0.3127 0.0000 ( 43216 PWs)   bands (ev):

   -24.3517 -24.2783 -24.2005 -24.1034 -24.0559 -23.8921 -23.8442 -23.8413
   -23.8273 -23.7559 -11.5778  -7.4651  -4.6529  -3.6139

          k = 0.1250 0.3608 0.0000 ( 43217 PWs)   bands (ev):

   -24.3712 -24.2889 -24.1987 -24.1062 -24.0481 -23.9006 -23.8403 -23.8386
   -23.8144 -23.7392 -11.3837  -7.9029  -4.8322  -3.4199

          k = 0.1250 0.4090 0.0000 ( 43255 PWs)   bands (ev):

   -24.3875 -24.2982 -24.1968 -24.1087 -24.0401 -23.9091 -23.8392 -23.8362
   -23.8028 -23.7237 -11.1711  -8.3164  -4.9797  -3.2093

          k = 0.1250 0.4571 0.0000 ( 43248 PWs)   bands (ev):

   -24.4001 -24.3056 -24.1951 -24.1107 -24.0328 -23.9169 -23.8393 -23.8342
   -23.7934 -23.7109 -10.9504  -8.6909  -5.0922  -2.9930

          k = 0.1250 0.5052 0.0000 ( 43254 PWs)   bands (ev):

   -24.4087 -24.3108 -24.1939 -24.1120 -24.0270 -23.9230 -23.8396 -23.8329
   -23.7868 -23.7019 -10.7450  -9.0003  -5.1680  -2.7943

          k = 0.1250 0.5533 0.0000 ( 43282 PWs)   bands (ev):

   -24.4131 -24.3134 -24.1932 -24.1128 -24.0237 -23.9265 -23.8399 -23.8322
   -23.7835 -23.6973 -10.6067  -9.1910  -5.2061  -2.6623

          k = 0.1667 0.2887 0.0000 ( 43216 PWs)   bands (ev):

   -24.3528 -24.2722 -24.2032 -24.1035 -24.0560 -23.8919 -23.8412 -23.8409
   -23.8339 -23.7554 -11.5914  -7.4196  -4.6912  -3.6275

          k = 0.1667 0.3368 0.0000 ( 43230 PWs)   bands (ev):

   -24.3738 -24.2780 -24.2036 -24.1065 -24.0478 -23.9007 -23.8383 -23.8346
   -23.8260 -23.7375 -11.4093  -7.8257  -4.9127  -3.4451

          k = 0.1667 0.3849 0.0000 ( 43233 PWs)   bands (ev):

   -24.3918 -24.2839 -24.2032 -24.1093 -24.0392 -23.9098 -23.8356 -23.8341
   -23.8154 -23.7203 -11.2053  -8.2216  -5.1009  -3.2424

          k = 0.1667 0.4330 0.0000 ( 43257 PWs)   bands (ev):

   -24.4065 -24.2892 -24.2025 -24.1117 -24.0307 -23.9188 -23.8349 -23.8333
   -23.8063 -23.7055 -10.9859  -8.5957  -5.2503  -3.0266

          k = 0.1667 0.4811 0.0000 ( 43273 PWs)   bands (ev):

   -24.4172 -24.2933 -24.2017 -24.1135 -24.0231 -23.9268 -23.8358 -23.8316
   -23.7994 -23.6943 -10.7655  -8.9295  -5.3582  -2.8120

          k = 0.1667 0.5292 0.0000 ( 43253 PWs)   bands (ev):

   -24.4237 -24.2960 -24.2011 -24.1146 -24.0176 -23.9325 -23.8365 -23.8305
   -23.7952 -23.6873 -10.5785  -9.1855  -5.4233  -2.6323

          k = 0.1667 0.5774 0.0000 ( 43258 PWs)   bands (ev):

   -24.4259 -24.2969 -24.2009 -24.1150 -24.0155 -23.9346 -23.8368 -23.8301
   -23.7938 -23.6850 -10.4977  -9.2896  -5.4451  -2.5555

          k = 0.2083 0.3608 0.0000 ( 43232 PWs)   bands (ev):

   -24.3933 -24.2783 -24.2062 -24.1096 -24.0388 -23.9101 -23.8354 -23.8288
   -23.8233 -23.7191 -11.2168  -8.1874  -5.1461  -3.2536

          k = 0.2083 0.4090 0.0000 ( 43241 PWs)   bands (ev):

   -24.4097 -24.2789 -24.2081 -24.1123 -24.0294 -23.9200 -23.8328 -23.8296
   -23.8161 -23.7027 -11.0043  -8.5415  -5.3404  -3.0439

          k = 0.2083 0.4571 0.0000 ( 43241 PWs)   bands (ev):

   -24.4223 -24.2797 -24.2093 -24.1145 -24.0201 -23.9296 -23.8311 -23.8306
   -23.8098 -23.6895 -10.7798  -8.8761  -5.4892  -2.8245

          k = 0.2083 0.5052 0.0000 ( 43279 PWs)   bands (ev):

   -24.4310 -24.2805 -24.2099 -24.1161 -24.0121 -23.9378 -23.8323 -23.8292
   -23.8055 -23.6803 -10.5631  -9.1681  -5.5894  -2.6149

          k = 0.2083 0.5533 0.0000 ( 43298 PWs)   bands (ev):

   -24.4354 -24.2810 -24.2102 -24.1169 -24.0072 -23.9429 -23.8330 -23.8284
   -23.8032 -23.6756 -10.4071  -9.3623  -5.6398  -2.4659

          k = 0.2500 0.4330 0.0000 ( 43230 PWs)   bands (ev):

   -24.4241 -24.2742 -24.2128 -24.1149 -24.0190 -23.9307 -23.8303 -23.8277
   -23.8151 -23.6879 -10.7850  -8.8562  -5.5358  -2.8290

          k = 0.2500 0.4811 0.0000 ( 43265 PWs)   bands (ev):

   -24.4347 -24.2702 -24.2168 -24.1169 -24.0088 -23.9411 -23.8285 -23.8280
   -23.8129 -23.6768 -10.5568  -9.1542  -5.6791  -2.6073

          k = 0.2500 0.5292 0.0000 ( 43294 PWs)   bands (ev):

   -24.4411 -24.2675 -24.2195 -24.1181 -24.0003 -23.9498 -23.8286 -23.8273
   -23.8111 -23.6698 -10.3465  -9.4072  -5.7663  -2.4052

          k = 0.2500 0.5774 0.0000 ( 43314 PWs)   bands (ev):

   -24.4433 -24.2665 -24.2205 -24.1185 -23.9966 -23.9535 -23.8289 -23.8269
   -23.8104 -23.6675 -10.2429  -9.5252  -5.7955  -2.3065

          k = 0.2917 0.5052 0.0000 ( 43286 PWs)   bands (ev):

   -24.4431 -24.2612 -24.2244 -24.1185 -23.9974 -23.9527 -23.8269 -23.8259
   -23.8151 -23.6679 -10.3250  -9.4224  -5.8102  -2.3835

          k = 0.2917 0.5533 0.0000 ( 43305 PWs)   bands (ev):

   -24.4474 -24.2546 -24.2303 -24.1194 -23.9878 -23.9623 -23.8261 -23.8248
   -23.8162 -23.6633 -10.1191  -9.6465  -5.8769  -2.1864

          k = 0.3333 0.5774 0.0000 ( 43302 PWs)   bands (ev):

   -24.4494 -24.2421 -24.2421 -24.1198 -23.9751 -23.9751 -23.8257 -23.8207
   -23.8207 -23.6611  -9.8847  -9.8847  -5.9144  -1.9623

     highest occupied level (ev):    -1.9623

!    total energy              =    -326.39144122 Ry
     estimated scf accuracy    <       0.00000064 Ry

     The total energy is the sum of the following terms:
     one-electron contribution =    -882.72411353 Ry
     hartree contribution      =     448.42162871 Ry
     xc contribution           =     -95.06726017 Ry
     ewald contribution        =     202.97830378 Ry

     convergence has been achieved in   6 iterations

     Writing output data file ../tmp/stanene.save/

     init_run     :     13.54s CPU     13.90s WALL (       1 calls)
     electrons    :    227.41s CPU    232.58s WALL (       1 calls)

     Called by init_run:
     wfcinit      :     12.64s CPU     12.92s WALL (       1 calls)
     potinit      :      0.24s CPU      0.26s WALL (       1 calls)
     hinit0       :      0.30s CPU      0.31s WALL (       1 calls)

     Called by electrons:
     c_bands      :    195.62s CPU    199.29s WALL (       6 calls)
     sum_band     :     29.50s CPU     30.64s WALL (       6 calls)
     v_of_rho     :      0.86s CPU      0.91s WALL (       7 calls)
     newd         :      1.56s CPU      1.90s WALL (       7 calls)
     mix_rho      :      0.15s CPU      0.15s WALL (       6 calls)

     Called by c_bands:
     init_us_2    :      1.84s CPU      1.84s WALL (     793 calls)
     cegterg      :    189.38s CPU    193.04s WALL (     366 calls)

     Called by *egterg:
     cdiaghg      :      0.82s CPU      0.82s WALL (    1354 calls)
     h_psi        :    146.90s CPU    150.75s WALL (    1415 calls)
     s_psi        :      8.27s CPU      8.30s WALL (    1415 calls)
     g_psi        :      0.64s CPU      0.64s WALL (     988 calls)

     Called by h_psi:
     h_psi:calbec :     13.25s CPU     13.47s WALL (    1415 calls)
     vloc_psi     :    124.12s CPU    127.74s WALL (    1415 calls)
     add_vuspsi   :      9.03s CPU      9.06s WALL (    1415 calls)

     General routines
     calbec       :     17.44s CPU     17.73s WALL (    1781 calls)
     fft          :      0.59s CPU      0.64s WALL (      77 calls)
     ffts         :      0.05s CPU      0.05s WALL (       6 calls)
     fftw         :    125.63s CPU    129.25s WALL (   38742 calls)

     Parallel routines
     fft_scatt_xy :     21.23s CPU     21.91s WALL (   38825 calls)
     fft_scatt_yz :     53.61s CPU     55.20s WALL (   38825 calls)

     PWSCF        :   4m 1.45s CPU   4m 7.76s WALL


   This run was terminated on:   0:33:32  20Jan2024            

=------------------------------------------------------------------------------=
   JOB DONE.
=------------------------------------------------------------------------------=
