
     Program PWSCF v.6.7MaX starts on 20Jan2024 at  0:18:35 

     This program is part of the open-source Quantum ESPRESSO suite
     for quantum simulation of materials; please cite
         "P. Giannozzi et al., J. Phys.:Condens. Matter 21 395502 (2009);
         "P. Giannozzi et al., J. Phys.:Condens. Matter 29 465901 (2017);
          URL http://www.quantum-espresso.org", 
     in publications or presentations arising from this work. More details at
     http://www.quantum-espresso.org/quote

     Parallel version (MPI), running on     6 processors

     MPI processes distributed on     1 nodes
     R & G space division:  proc/nbgrp/npool/nimage =       6
     Waiting for input...
     Reading input from standard input

     Current dimensions of program PWSCF are:
     Max number of different atomic species (ntypx) = 10
     Max number of k-points (npk) =  40000
     Max angular momentum in pseudopotentials (lmaxx) =  3

     Subspace diagonalization in iterative solution of the eigenvalue problem:
     one sub-group per band group will be used
     scalapack distributed-memory algorithm (size of sub-group:  2*  2 procs)


     Parallelization info
     --------------------
     sticks:   dense  smooth     PW     G-vecs:    dense   smooth      PW
     Min         142     142     42                14559    14559    2268
     Max         144     144     43                14566    14566    2279
     Sum         859     859    253                87375    87375   13629



     bravais-lattice index     =            4
     lattice parameter (alat)  =       8.8439  a.u.
     unit-cell volume          =    2560.0529 (a.u.)^3
     number of atoms/cell      =            2
     number of atomic types    =            1
     number of electrons       =        28.00
     number of Kohn-Sham states=           14
     kinetic-energy cutoff     =      40.0000  Ry
     charge density cutoff     =     160.0000  Ry
     scf convergence threshold =      1.0E-06
     mixing beta               =       0.7000
     number of iterations used =            8  plain     mixing
     Exchange-correlation= SLA  PW   PBE  PBE
                           (   1   4   3   4   0   0   0)

     celldm(1)=   8.843918  celldm(2)=   0.000000  celldm(3)=   4.273504
     celldm(4)=   0.000000  celldm(5)=   0.000000  celldm(6)=   0.000000

     crystal axes: (cart. coord. in units of alat)
               a(1) = (   1.000000   0.000000   0.000000 )  
               a(2) = (  -0.500000   0.866025   0.000000 )  
               a(3) = (   0.000000   0.000000   4.273504 )  

     reciprocal axes: (cart. coord. in units 2 pi/alat)
               b(1) = (  1.000000  0.577350 -0.000000 )  
               b(2) = (  0.000000  1.154701  0.000000 )  
               b(3) = (  0.000000 -0.000000  0.234000 )  


     PseudoPot. # 1 for Sn read from file:
     ../pseudo/Sn_pbe_v1.uspp.F.UPF
     MD5 check sum: 4cf58ce39ec5d5d420df3dd08604eb00
     Pseudo is Ultrasoft + core correction, Zval = 14.0
     Generated by new atomic code, or converted to UPF format
     Using radial grid of  891 points,  6 beta functions with: 
                l(1) =   0
                l(2) =   0
                l(3) =   1
                l(4) =   1
                l(5) =   2
                l(6) =   2
     Q(r) pseudized with  6 coefficients,  rinner =    1.200   1.200   1.200
                                                       1.200   1.200

     atomic species   valence    mass     pseudopotential
        Sn            14.00   118.71000     Sn( 1.00)

     24 Sym. Ops., with inversion, found



   Cartesian axes

     site n.     atom                  positions (alat units)
         1           Sn  tau(   1) = (   0.0000000   0.5773503   2.1367521  )
         2           Sn  tau(   2) = (   0.5000000   0.2886751   2.1367521  )

     number of k points=    61
                       cart. coord. in units 2pi/alat
        k(    1) = (   0.0000000   0.0000000   0.0000000), wk =   0.0034722
        k(    2) = (   0.0000000   0.0481125   0.0000000), wk =   0.0208333
        k(    3) = (   0.0000000   0.0962250   0.0000000), wk =   0.0208333
        k(    4) = (   0.0000000   0.1443376   0.0000000), wk =   0.0208333
        k(    5) = (   0.0000000   0.1924501   0.0000000), wk =   0.0208333
        k(    6) = (   0.0000000   0.2405626   0.0000000), wk =   0.0208333
        k(    7) = (   0.0000000   0.2886751   0.0000000), wk =   0.0208333
        k(    8) = (   0.0000000   0.3367877   0.0000000), wk =   0.0208333
        k(    9) = (   0.0000000   0.3849002   0.0000000), wk =   0.0208333
        k(   10) = (   0.0000000   0.4330127   0.0000000), wk =   0.0208333
        k(   11) = (   0.0000000   0.4811252   0.0000000), wk =   0.0208333
        k(   12) = (   0.0000000   0.5292377   0.0000000), wk =   0.0208333
        k(   13) = (   0.0000000  -0.5773503   0.0000000), wk =   0.0104167
        k(   14) = (   0.0416667   0.0721688   0.0000000), wk =   0.0208333
        k(   15) = (   0.0416667   0.1202813   0.0000000), wk =   0.0416667
        k(   16) = (   0.0416667   0.1683938   0.0000000), wk =   0.0416667
        k(   17) = (   0.0416667   0.2165064   0.0000000), wk =   0.0416667
        k(   18) = (   0.0416667   0.2646189   0.0000000), wk =   0.0416667
        k(   19) = (   0.0416667   0.3127314   0.0000000), wk =   0.0416667
        k(   20) = (   0.0416667   0.3608439   0.0000000), wk =   0.0416667
        k(   21) = (   0.0416667   0.4089564   0.0000000), wk =   0.0416667
        k(   22) = (   0.0416667   0.4570690   0.0000000), wk =   0.0416667
        k(   23) = (   0.0416667   0.5051815   0.0000000), wk =   0.0416667
        k(   24) = (   0.0416667   0.5532940   0.0000000), wk =   0.0416667
        k(   25) = (   0.0833333   0.1443376   0.0000000), wk =   0.0208333
        k(   26) = (   0.0833333   0.1924501   0.0000000), wk =   0.0416667
        k(   27) = (   0.0833333   0.2405626   0.0000000), wk =   0.0416667
        k(   28) = (   0.0833333   0.2886751   0.0000000), wk =   0.0416667
        k(   29) = (   0.0833333   0.3367877   0.0000000), wk =   0.0416667
        k(   30) = (   0.0833333   0.3849002   0.0000000), wk =   0.0416667
        k(   31) = (   0.0833333   0.4330127   0.0000000), wk =   0.0416667
        k(   32) = (   0.0833333   0.4811252   0.0000000), wk =   0.0416667
        k(   33) = (   0.0833333   0.5292377   0.0000000), wk =   0.0416667
        k(   34) = (   0.0833333   0.5773503   0.0000000), wk =   0.0208333
        k(   35) = (   0.1250000   0.2165064   0.0000000), wk =   0.0208333
        k(   36) = (   0.1250000   0.2646189   0.0000000), wk =   0.0416667
        k(   37) = (   0.1250000   0.3127314   0.0000000), wk =   0.0416667
        k(   38) = (   0.1250000   0.3608439   0.0000000), wk =   0.0416667
        k(   39) = (   0.1250000   0.4089564   0.0000000), wk =   0.0416667
        k(   40) = (   0.1250000   0.4570690   0.0000000), wk =   0.0416667
        k(   41) = (   0.1250000   0.5051815   0.0000000), wk =   0.0416667
        k(   42) = (   0.1250000   0.5532940   0.0000000), wk =   0.0416667
        k(   43) = (   0.1666667   0.2886751   0.0000000), wk =   0.0208333
        k(   44) = (   0.1666667   0.3367877   0.0000000), wk =   0.0416667
        k(   45) = (   0.1666667   0.3849002   0.0000000), wk =   0.0416667
        k(   46) = (   0.1666667   0.4330127   0.0000000), wk =   0.0416667
        k(   47) = (   0.1666667   0.4811252   0.0000000), wk =   0.0416667
        k(   48) = (   0.1666667   0.5292377   0.0000000), wk =   0.0416667
        k(   49) = (   0.1666667   0.5773503   0.0000000), wk =   0.0208333
        k(   50) = (   0.2083333   0.3608439   0.0000000), wk =   0.0208333
        k(   51) = (   0.2083333   0.4089564   0.0000000), wk =   0.0416667
        k(   52) = (   0.2083333   0.4570690   0.0000000), wk =   0.0416667
        k(   53) = (   0.2083333   0.5051815   0.0000000), wk =   0.0416667
        k(   54) = (   0.2083333   0.5532940   0.0000000), wk =   0.0416667
        k(   55) = (   0.2500000   0.4330127   0.0000000), wk =   0.0208333
        k(   56) = (   0.2500000   0.4811252   0.0000000), wk =   0.0416667
        k(   57) = (   0.2500000   0.5292377   0.0000000), wk =   0.0416667
        k(   58) = (   0.2500000   0.5773503   0.0000000), wk =   0.0208333
        k(   59) = (   0.2916667   0.5051815   0.0000000), wk =   0.0208333
        k(   60) = (   0.2916667   0.5532940   0.0000000), wk =   0.0416667
        k(   61) = (   0.3333333   0.5773503   0.0000000), wk =   0.0069444

     Dense  grid:    87375 G-vectors     FFT dimensions: (  36,  36, 160)

     Estimated max dynamical RAM per process >      76.37 MB

     Estimated total dynamical RAM >     458.22 MB

     Check: negative core charge=   -0.000001

     Initial potential from superposition of free atoms

     starting charge   25.99991, renormalised to   28.00000

     negative rho (up, down):  1.678E-02 0.000E+00
     Starting wfcs are   18 randomized atomic wfcs

     total cpu time spent up to now is        3.1 secs

     Self-consistent Calculation

     iteration #  1     ecut=    40.00 Ry     beta= 0.70
     Davidson diagonalization with overlap
     ethr =  1.00E-02,  avg # of iterations =  2.0

     negative rho (up, down):  1.225E-02 0.000E+00

     total cpu time spent up to now is        9.9 secs

     total energy              =    -325.48658482 Ry
     estimated scf accuracy    <       2.42248840 Ry

     iteration #  2     ecut=    40.00 Ry     beta= 0.70
     Davidson diagonalization with overlap
     ethr =  8.65E-03,  avg # of iterations =  2.0

     negative rho (up, down):  1.365E-02 0.000E+00

     total cpu time spent up to now is       16.6 secs

     total energy              =    -326.34626628 Ry
     estimated scf accuracy    <       0.30078395 Ry

     iteration #  3     ecut=    40.00 Ry     beta= 0.70
     Davidson diagonalization with overlap
     ethr =  1.07E-03,  avg # of iterations =  2.1

     negative rho (up, down):  1.444E-02 0.000E+00

     total cpu time spent up to now is       23.5 secs

     total energy              =    -326.38748554 Ry
     estimated scf accuracy    <       0.00611926 Ry

     iteration #  4     ecut=    40.00 Ry     beta= 0.70
     Davidson diagonalization with overlap
     ethr =  2.19E-05,  avg # of iterations =  3.1

     negative rho (up, down):  1.423E-02 0.000E+00

     total cpu time spent up to now is       31.4 secs

     total energy              =    -326.39002522 Ry
     estimated scf accuracy    <       0.00097996 Ry

     iteration #  5     ecut=    40.00 Ry     beta= 0.70
     Davidson diagonalization with overlap
     ethr =  3.50E-06,  avg # of iterations =  2.3

     negative rho (up, down):  1.417E-02 0.000E+00

     total cpu time spent up to now is       39.0 secs

     total energy              =    -326.39026418 Ry
     estimated scf accuracy    <       0.00000378 Ry

     iteration #  6     ecut=    40.00 Ry     beta= 0.70
     Davidson diagonalization with overlap
     ethr =  1.35E-08,  avg # of iterations =  5.2

     negative rho (up, down):  1.417E-02 0.000E+00

     total cpu time spent up to now is       46.1 secs

     total energy              =    -326.39035117 Ry
     estimated scf accuracy    <       0.00000166 Ry

     iteration #  7     ecut=    40.00 Ry     beta= 0.70
     Davidson diagonalization with overlap
     ethr =  5.93E-09,  avg # of iterations =  1.0

     negative rho (up, down):  1.418E-02 0.000E+00

     total cpu time spent up to now is       51.0 secs

     total energy              =    -326.39035045 Ry
     estimated scf accuracy    <       0.00000102 Ry

     iteration #  8     ecut=    40.00 Ry     beta= 0.70
     Davidson diagonalization with overlap
     ethr =  3.63E-09,  avg # of iterations =  2.1

     negative rho (up, down):  1.418E-02 0.000E+00

     total cpu time spent up to now is       58.0 secs

     End of self-consistent calculation

          k = 0.0000 0.0000 0.0000 ( 10895 PWs)   bands (ev):

   -24.2237 -24.2237 -24.2202 -24.1115 -24.1115 -23.9600 -23.9600 -23.8798
   -23.8798 -23.8109 -12.3107  -4.3632  -3.7763  -3.4524

          k = 0.0000 0.0481 0.0000 ( 10919 PWs)   bands (ev):

   -24.2283 -24.2277 -24.2204 -24.1119 -24.1108 -23.9556 -23.9550 -23.8806
   -23.8794 -23.8108 -12.2958  -4.3478  -4.2242  -3.4860

          k = 0.0000 0.0962 0.0000 ( 10887 PWs)   bands (ev):

   -24.2409 -24.2401 -24.2196 -24.1130 -24.1088 -23.9435 -23.9410 -23.8829
   -23.8783 -23.8105 -12.2514  -4.8043  -4.3018  -3.5800

          k = 0.0000 0.1443 0.0000 ( 10895 PWs)   bands (ev):

   -24.2588 -24.2580 -24.2181 -24.1147 -24.1055 -23.9267 -23.9210 -23.8867
   -23.8765 -23.8096 -12.1776  -5.3853  -4.2255  -3.7175

          k = 0.0000 0.1925 0.0000 ( 10909 PWs)   bands (ev):

   -24.2794 -24.2788 -24.2160 -24.1170 -24.1010 -23.9082 -23.8976 -23.8918
   -23.8743 -23.8075 -12.0748  -5.9553  -4.1196  -3.8793

          k = 0.0000 0.2406 0.0000 ( 10911 PWs)   bands (ev):

   -24.3006 -24.3004 -24.2135 -24.1196 -24.0954 -23.8981 -23.8912 -23.8733
   -23.8717 -23.8034 -11.9437  -6.5078  -4.0489  -3.9853

          k = 0.0000 0.2887 0.0000 ( 10909 PWs)   bands (ev):

   -24.3212 -24.3209 -24.2109 -24.1223 -24.0891 -23.9052 -23.8780 -23.8690
   -23.8495 -23.7963 -11.7855  -7.0377  -4.2135  -3.8243

          k = 0.0000 0.3368 0.0000 ( 10916 PWs)   bands (ev):

   -24.3403 -24.3393 -24.2081 -24.1249 -24.0823 -23.9128 -23.8693 -23.8664
   -23.8275 -23.7864 -11.6023  -7.5398  -4.3640  -3.6395

          k = 0.0000 0.3849 0.0000 ( 10938 PWs)   bands (ev):

   -24.3568 -24.3552 -24.2056 -24.1274 -24.0753 -23.9205 -23.8646 -23.8640
   -23.8084 -23.7752 -11.3982  -8.0078  -4.4939  -3.4353

          k = 0.0000 0.4330 0.0000 ( 10948 PWs)   bands (ev):

   -24.3701 -24.3680 -24.2033 -24.1294 -24.0687 -23.9277 -23.8624 -23.8620
   -23.7928 -23.7645 -11.1811  -8.4319  -4.5989  -3.2205

          k = 0.0000 0.4811 0.0000 ( 10930 PWs)   bands (ev):

   -24.3799 -24.3774 -24.2016 -24.1310 -24.0632 -23.9337 -23.8615 -23.8604
   -23.7813 -23.7559 -10.9677  -8.7942  -4.6757  -3.0117

          k = 0.0000 0.5292 0.0000 ( 10944 PWs)   bands (ev):

   -24.3859 -24.3831 -24.2005 -24.1319 -24.0594 -23.9378 -23.8612 -23.8595
   -23.7742 -23.7505 -10.7941  -9.0574  -4.7226  -2.8439

          k = 0.0000-0.5774 0.0000 ( 10920 PWs)   bands (ev):

   -24.3879 -24.3850 -24.2001 -24.1322 -24.0581 -23.9392 -23.8612 -23.8591
   -23.7718 -23.7486 -10.7227  -9.1589  -4.7384  -2.7755

          k = 0.0417 0.0722 0.0000 ( 10889 PWs)   bands (ev):

   -24.2392 -24.2332 -24.2205 -24.1126 -24.1094 -23.9474 -23.9454 -23.8821
   -23.8786 -23.8106 -12.2662  -4.6470  -4.3171  -3.5535

          k = 0.0417 0.1203 0.0000 ( 10891 PWs)   bands (ev):

   -24.2570 -24.2452 -24.2198 -24.1141 -24.1067 -23.9331 -23.9285 -23.8852
   -23.8772 -23.8100 -12.2071  -5.1774  -4.2559  -3.6778

          k = 0.0417 0.1684 0.0000 ( 10912 PWs)   bands (ev):

   -24.2784 -24.2618 -24.2182 -24.1162 -24.1028 -23.9156 -23.9071 -23.8897
   -23.8751 -23.8084 -12.1188  -5.7273  -4.1648  -3.8374

          k = 0.0417 0.2165 0.0000 ( 10911 PWs)   bands (ev):

   -24.3012 -24.2806 -24.2160 -24.1186 -24.0977 -23.8979 -23.8955 -23.8839
   -23.8727 -23.8051 -12.0018  -6.2731  -4.0446  -4.0124

          k = 0.0417 0.2646 0.0000 ( 10905 PWs)   bands (ev):

   -24.3237 -24.2996 -24.2134 -24.1213 -24.0916 -23.9023 -23.8827 -23.8700
   -23.8609 -23.7989 -11.8569  -6.8041  -4.1874  -3.8969

          k = 0.0417 0.3127 0.0000 ( 10918 PWs)   bands (ev):

   -24.3446 -24.3175 -24.2107 -24.1241 -24.0849 -23.9098 -23.8719 -23.8673
   -23.8394 -23.7893 -11.6859  -7.3133  -4.3514  -3.7236

          k = 0.0417 0.3608 0.0000 ( 10930 PWs)   bands (ev):

   -24.3632 -24.3336 -24.2081 -24.1267 -24.0778 -23.9176 -23.8656 -23.8647
   -23.8204 -23.7772 -11.4916  -7.7939  -4.4966  -3.5285

          k = 0.0417 0.4090 0.0000 ( 10943 PWs)   bands (ev):

   -24.3787 -24.3471 -24.2057 -24.1289 -24.0709 -23.9252 -23.8625 -23.8625
   -23.8044 -23.7647 -11.2796  -8.2378  -4.6178  -3.3175

          k = 0.0417 0.4571 0.0000 ( 10949 PWs)   bands (ev):

   -24.3907 -24.3575 -24.2037 -24.1308 -24.0646 -23.9321 -23.8612 -23.8607
   -23.7920 -23.7539 -11.0611  -8.6318  -4.7114  -3.1025

          k = 0.0417 0.5052 0.0000 ( 10937 PWs)   bands (ev):

   -24.3989 -24.3647 -24.2022 -24.1320 -24.0597 -23.9373 -23.8608 -23.8594
   -23.7835 -23.7461 -10.8608  -8.9499  -4.7750  -2.9077

          k = 0.0417 0.5533 0.0000 ( 10926 PWs)   bands (ev):

   -24.4030 -24.3683 -24.2015 -24.1327 -24.0570 -23.9402 -23.8607 -23.8587
   -23.7792 -23.7420 -10.7289  -9.1408  -4.8071  -2.7809

          k = 0.0833 0.1443 0.0000 ( 10893 PWs)   bands (ev):

   -24.2782 -24.2545 -24.2201 -24.1159 -24.1033 -23.9184 -23.9103 -23.8891
   -23.8754 -23.8087 -12.1335  -5.6418  -4.1799  -3.8368

          k = 0.0833 0.1925 0.0000 ( 10889 PWs)   bands (ev):

   -24.3016 -24.2678 -24.2193 -24.1183 -24.0986 -23.9017 -23.8944 -23.8898
   -23.8731 -23.8057 -12.0309  -6.1384  -4.0744  -4.0266

          k = 0.0833 0.2406 0.0000 ( 10908 PWs)   bands (ev):

   -24.3253 -24.2831 -24.2176 -24.1210 -24.0929 -23.9008 -23.8856 -23.8704
   -23.8695 -23.7996 -11.9000  -6.6412  -4.2236  -3.9406

          k = 0.0833 0.2887 0.0000 ( 10911 PWs)   bands (ev):

   -24.3479 -24.2987 -24.2153 -24.1238 -24.0862 -23.9082 -23.8729 -23.8676
   -23.8510 -23.7895 -11.7420  -7.1358  -4.4121  -3.7802

          k = 0.0833 0.3368 0.0000 ( 10927 PWs)   bands (ev):

   -24.3684 -24.3133 -24.2128 -24.1266 -24.0790 -23.9161 -23.8651 -23.8649
   -23.8342 -23.7759 -11.5590  -7.6125  -4.5821  -3.5957

          k = 0.0833 0.3849 0.0000 ( 10943 PWs)   bands (ev):

   -24.3861 -24.3262 -24.2104 -24.1291 -24.0716 -23.9242 -23.8624 -23.8612
   -23.8194 -23.7613 -11.3548  -8.0624  -4.7273  -3.3917

          k = 0.0833 0.4330 0.0000 ( 10949 PWs)   bands (ev):

   -24.4004 -24.3367 -24.2082 -24.1313 -24.0645 -23.9319 -23.8603 -23.8597
   -23.8071 -23.7481 -11.1370  -8.4744  -4.8435  -3.1763

          k = 0.0833 0.4811 0.0000 ( 10951 PWs)   bands (ev):

   -24.4108 -24.3445 -24.2065 -24.1329 -24.0584 -23.9384 -23.8593 -23.8587
   -23.7979 -23.7377 -10.9219  -8.8298  -4.9281  -2.9660

          k = 0.0833 0.5292 0.0000 ( 10921 PWs)   bands (ev):

   -24.4172 -24.3493 -24.2055 -24.1339 -24.0543 -23.9428 -23.8593 -23.8577
   -23.7922 -23.7312 -10.7454  -9.0912  -4.9795  -2.7954

          k = 0.0833 0.5774 0.0000 ( 10916 PWs)   bands (ev):

   -24.4193 -24.3509 -24.2051 -24.1343 -24.0528 -23.9444 -23.8593 -23.8573
   -23.7903 -23.7290 -10.6720  -9.1930  -4.9967  -2.7251

          k = 0.1250 0.2165 0.0000 ( 10891 PWs)   bands (ev):

   -24.3258 -24.2765 -24.2199 -24.1209 -24.0932 -23.9003 -23.8865 -23.8727
   -23.8705 -23.7997 -11.9143  -6.5815  -4.2470  -3.9552

          k = 0.1250 0.2646 0.0000 ( 10904 PWs)   bands (ev):

   -24.3496 -24.2869 -24.2195 -24.1238 -24.0867 -23.9075 -23.8725 -23.8677
   -23.8585 -23.7892 -11.7701  -7.0356  -4.4687  -3.8085

          k = 0.1250 0.3127 0.0000 ( 10922 PWs)   bands (ev):

   -24.3716 -24.2980 -24.2182 -24.1268 -24.0793 -23.9155 -23.8648 -23.8627
   -23.8458 -23.7746 -11.5996  -7.4870  -4.6742  -3.6364

          k = 0.1250 0.3608 0.0000 ( 10950 PWs)   bands (ev):

   -24.3912 -24.3085 -24.2165 -24.1296 -24.0715 -23.9240 -23.8620 -23.8581
   -23.8331 -23.7583 -11.4056  -7.9248  -4.8534  -3.4419

          k = 0.1250 0.4090 0.0000 ( 10948 PWs)   bands (ev):

   -24.4075 -24.3178 -24.2146 -24.1321 -24.0636 -23.9325 -23.8596 -23.8567
   -23.8216 -23.7430 -11.1930  -8.3382  -5.0008  -3.2308

          k = 0.1250 0.4571 0.0000 ( 10948 PWs)   bands (ev):

   -24.4201 -24.3252 -24.2130 -24.1341 -24.0563 -23.9403 -23.8577 -23.8565
   -23.8122 -23.7303 -10.9723  -8.7128  -5.1133  -3.0138

          k = 0.1250 0.5052 0.0000 ( 10943 PWs)   bands (ev):

   -24.4287 -24.3303 -24.2118 -24.1355 -24.0504 -23.9465 -23.8568 -23.8563
   -23.8057 -23.7214 -10.7669  -9.0222  -5.1891  -2.8143

          k = 0.1250 0.5533 0.0000 ( 10946 PWs)   bands (ev):

   -24.4331 -24.3329 -24.2111 -24.1362 -24.0471 -23.9499 -23.8570 -23.8556
   -23.8024 -23.7168 -10.6287  -9.2129  -5.2272  -2.6815

          k = 0.1667 0.2887 0.0000 ( 10925 PWs)   bands (ev):

   -24.3727 -24.2919 -24.2208 -24.1269 -24.0794 -23.9154 -23.8647 -23.8599
   -23.8518 -23.7740 -11.6132  -7.4415  -4.7124  -3.6499

          k = 0.1667 0.3368 0.0000 ( 10935 PWs)   bands (ev):

   -24.3937 -24.2976 -24.2213 -24.1299 -24.0713 -23.9241 -23.8617 -23.8527
   -23.8443 -23.7566 -11.4311  -7.8476  -4.9338  -3.4672

          k = 0.1667 0.3849 0.0000 ( 10945 PWs)   bands (ev):

   -24.4118 -24.3034 -24.2211 -24.1327 -24.0626 -23.9333 -23.8590 -23.8517
   -23.8339 -23.7396 -11.2272  -8.2436  -5.1219  -3.2641

          k = 0.1667 0.4330 0.0000 ( 10942 PWs)   bands (ev):

   -24.4265 -24.3087 -24.2204 -24.1351 -24.0541 -23.9422 -23.8568 -23.8523
   -23.8249 -23.7250 -11.0078  -8.6176  -5.2713  -3.0476

          k = 0.1667 0.4811 0.0000 ( 10952 PWs)   bands (ev):

   -24.4372 -24.3128 -24.2197 -24.1369 -24.0465 -23.9502 -23.8550 -23.8531
   -23.8180 -23.7138 -10.7874  -8.9513  -5.3792  -2.8324

          k = 0.1667 0.5292 0.0000 ( 10952 PWs)   bands (ev):

   -24.4437 -24.3154 -24.2192 -24.1380 -24.0410 -23.9559 -23.8539 -23.8538
   -23.8138 -23.7069 -10.6004  -9.2074  -5.4443  -2.6519

          k = 0.1667 0.5774 0.0000 ( 10957 PWs)   bands (ev):

   -24.4459 -24.3163 -24.2190 -24.1384 -24.0389 -23.9581 -23.8540 -23.8536
   -23.8124 -23.7045 -10.5196  -9.3114  -5.4661  -2.5745

          k = 0.2083 0.3608 0.0000 ( 10951 PWs)   bands (ev):

   -24.4133 -24.2978 -24.2240 -24.1330 -24.0623 -23.9336 -23.8588 -23.8462
   -23.8420 -23.7385 -11.2387  -8.2093  -5.1671  -3.2753

          k = 0.2083 0.4090 0.0000 ( 10953 PWs)   bands (ev):

   -24.4297 -24.2983 -24.2261 -24.1357 -24.0528 -23.9434 -23.8562 -23.8470
   -23.8346 -23.7222 -11.0262  -8.5635  -5.3614  -3.0651

          k = 0.2083 0.4571 0.0000 ( 10975 PWs)   bands (ev):

   -24.4424 -24.2991 -24.2274 -24.1379 -24.0436 -23.9531 -23.8541 -23.8484
   -23.8283 -23.7091 -10.8018  -8.8980  -5.5101  -2.8451

          k = 0.2083 0.5052 0.0000 ( 10973 PWs)   bands (ev):

   -24.4510 -24.2998 -24.2281 -24.1395 -24.0356 -23.9613 -23.8526 -23.8496
   -23.8239 -23.7000 -10.5850  -9.1900  -5.6103  -2.6348

          k = 0.2083 0.5533 0.0000 ( 10974 PWs)   bands (ev):

   -24.4554 -24.3002 -24.2284 -24.1403 -24.0306 -23.9664 -23.8519 -23.8503
   -23.8216 -23.6953 -10.4291  -9.3842  -5.6606  -2.4851

          k = 0.2500 0.4330 0.0000 ( 10961 PWs)   bands (ev):

   -24.4441 -24.2935 -24.2309 -24.1383 -24.0425 -23.9541 -23.8538 -23.8451
   -23.8335 -23.7075 -10.8069  -8.8781  -5.5567  -2.8497

          k = 0.2500 0.4811 0.0000 ( 10981 PWs)   bands (ev):

   -24.4547 -24.2894 -24.2350 -24.1403 -24.0322 -23.9646 -23.8519 -23.8454
   -23.8312 -23.6964 -10.5787  -9.1762  -5.7000  -2.6274

          k = 0.2500 0.5292 0.0000 ( 10982 PWs)   bands (ev):

   -24.4612 -24.2866 -24.2379 -24.1415 -24.0237 -23.9732 -23.8508 -23.8461
   -23.8293 -23.6895 -10.3684  -9.4291  -5.7871  -2.4246

          k = 0.2500 0.5774 0.0000 ( 10975 PWs)   bands (ev):

   -24.4634 -24.2856 -24.2389 -24.1419 -24.0200 -23.9770 -23.8504 -23.8464
   -23.8286 -23.6872 -10.2648  -9.5471  -5.8164  -2.3256

          k = 0.2917 0.5052 0.0000 ( 10963 PWs)   bands (ev):

   -24.4632 -24.2803 -24.2428 -24.1419 -24.0208 -23.9761 -23.8504 -23.8434
   -23.8332 -23.6876 -10.3470  -9.4444  -5.8310  -2.4031

          k = 0.2917 0.5533 0.0000 ( 10973 PWs)   bands (ev):

   -24.4674 -24.2735 -24.2489 -24.1428 -24.0113 -23.9857 -23.8496 -23.8424
   -23.8342 -23.6830 -10.1411  -9.6685  -5.8977  -2.2055

          k = 0.3333 0.5774 0.0000 ( 10977 PWs)   bands (ev):

   -24.4695 -24.2608 -24.2608 -24.1432 -23.9985 -23.9985 -23.8492 -23.8385
   -23.8385 -23.6808  -9.9066  -9.9066  -5.9352  -1.9814

     highest occupied level (ev):    -1.9814

!    total energy              =    -326.39035073 Ry
     estimated scf accuracy    <          6.4E-09 Ry

     The total energy is the sum of the following terms:
     one-electron contribution =    -882.65706606 Ry
     hartree contribution      =     448.35644174 Ry
     xc contribution           =     -95.06803016 Ry
     ewald contribution        =     202.97830376 Ry

     convergence has been achieved in   8 iterations

     Writing output data file ../tmp/stanene.save/

     init_run     :      2.88s CPU      3.01s WALL (       1 calls)
     electrons    :     53.03s CPU     54.94s WALL (       1 calls)

     Called by init_run:
     wfcinit      :      2.58s CPU      2.69s WALL (       1 calls)
     potinit      :      0.06s CPU      0.06s WALL (       1 calls)
     hinit0       :      0.13s CPU      0.13s WALL (       1 calls)

     Called by electrons:
     c_bands      :     46.03s CPU     47.51s WALL (       8 calls)
     sum_band     :      6.29s CPU      6.66s WALL (       8 calls)
     v_of_rho     :      0.21s CPU      0.22s WALL (       9 calls)
     newd         :      0.48s CPU      0.55s WALL (       9 calls)
     mix_rho      :      0.06s CPU      0.06s WALL (       8 calls)

     Called by c_bands:
     init_us_2    :      0.51s CPU      0.53s WALL (    1037 calls)
     cegterg      :     43.94s CPU     45.40s WALL (     488 calls)

     Called by *egterg:
     cdiaghg      :      0.94s CPU      0.95s WALL (    1692 calls)
     h_psi        :     30.47s CPU     31.89s WALL (    1753 calls)
     s_psi        :      2.17s CPU      2.21s WALL (    1753 calls)
     g_psi        :      0.21s CPU      0.21s WALL (    1204 calls)

     Called by h_psi:
     h_psi:calbec :      3.50s CPU      3.65s WALL (    1753 calls)
     vloc_psi     :     24.67s CPU     25.86s WALL (    1753 calls)
     add_vuspsi   :      2.21s CPU      2.28s WALL (    1753 calls)

     General routines
     calbec       :      4.62s CPU      4.82s WALL (    2241 calls)
     fft          :      0.18s CPU      0.19s WALL (      99 calls)
     ffts         :      0.01s CPU      0.01s WALL (       8 calls)
     fftw         :     26.76s CPU     27.99s WALL (   48340 calls)

     Parallel routines
     fft_scatt_xy :      1.88s CPU      2.00s WALL (   48447 calls)
     fft_scatt_yz :     14.02s CPU     14.56s WALL (   48447 calls)

     PWSCF        :     56.05s CPU     58.20s WALL


   This run was terminated on:   0:19:33  20Jan2024            

=------------------------------------------------------------------------------=
   JOB DONE.
=------------------------------------------------------------------------------=
