
     Program PWSCF v.6.7MaX starts on 20Jan2024 at  0:26:14 

     This program is part of the open-source Quantum ESPRESSO suite
     for quantum simulation of materials; please cite
         "P. Giannozzi et al., J. Phys.:Condens. Matter 21 395502 (2009);
         "P. Giannozzi et al., J. Phys.:Condens. Matter 29 465901 (2017);
          URL http://www.quantum-espresso.org", 
     in publications or presentations arising from this work. More details at
     http://www.quantum-espresso.org/quote

     Parallel version (MPI), running on     6 processors

     MPI processes distributed on     1 nodes
     R & G space division:  proc/nbgrp/npool/nimage =       6
     Waiting for input...
     Reading input from standard input

     Current dimensions of program PWSCF are:
     Max number of different atomic species (ntypx) = 10
     Max number of k-points (npk) =  40000
     Max angular momentum in pseudopotentials (lmaxx) =  3

     Subspace diagonalization in iterative solution of the eigenvalue problem:
     one sub-group per band group will be used
     scalapack distributed-memory algorithm (size of sub-group:  2*  2 procs)


     Parallelization info
     --------------------
     sticks:   dense  smooth     PW     G-vecs:    dense   smooth      PW
     Min         324     324     88                49246    49246    7096
     Max         325     325     90                49263    49263    7101
     Sum        1945    1945    535               295513   295513   42593



     bravais-lattice index     =            4
     lattice parameter (alat)  =       8.8439  a.u.
     unit-cell volume          =    2560.0529 (a.u.)^3
     number of atoms/cell      =            2
     number of atomic types    =            1
     number of electrons       =        28.00
     number of Kohn-Sham states=           14
     kinetic-energy cutoff     =      90.0000  Ry
     charge density cutoff     =     360.0000  Ry
     scf convergence threshold =      1.0E-06
     mixing beta               =       0.7000
     number of iterations used =            8  plain     mixing
     Exchange-correlation= SLA  PW   PBE  PBE
                           (   1   4   3   4   0   0   0)

     celldm(1)=   8.843918  celldm(2)=   0.000000  celldm(3)=   4.273504
     celldm(4)=   0.000000  celldm(5)=   0.000000  celldm(6)=   0.000000

     crystal axes: (cart. coord. in units of alat)
               a(1) = (   1.000000   0.000000   0.000000 )  
               a(2) = (  -0.500000   0.866025   0.000000 )  
               a(3) = (   0.000000   0.000000   4.273504 )  

     reciprocal axes: (cart. coord. in units 2 pi/alat)
               b(1) = (  1.000000  0.577350 -0.000000 )  
               b(2) = (  0.000000  1.154701  0.000000 )  
               b(3) = (  0.000000 -0.000000  0.234000 )  


     PseudoPot. # 1 for Sn read from file:
     ../pseudo/Sn_pbe_v1.uspp.F.UPF
     MD5 check sum: 4cf58ce39ec5d5d420df3dd08604eb00
     Pseudo is Ultrasoft + core correction, Zval = 14.0
     Generated by new atomic code, or converted to UPF format
     Using radial grid of  891 points,  6 beta functions with: 
                l(1) =   0
                l(2) =   0
                l(3) =   1
                l(4) =   1
                l(5) =   2
                l(6) =   2
     Q(r) pseudized with  6 coefficients,  rinner =    1.200   1.200   1.200
                                                       1.200   1.200

     atomic species   valence    mass     pseudopotential
        Sn            14.00   118.71000     Sn( 1.00)

     24 Sym. Ops., with inversion, found



   Cartesian axes

     site n.     atom                  positions (alat units)
         1           Sn  tau(   1) = (   0.0000000   0.5773503   2.1367521  )
         2           Sn  tau(   2) = (   0.5000000   0.2886751   2.1367521  )

     number of k points=    61
                       cart. coord. in units 2pi/alat
        k(    1) = (   0.0000000   0.0000000   0.0000000), wk =   0.0034722
        k(    2) = (   0.0000000   0.0481125   0.0000000), wk =   0.0208333
        k(    3) = (   0.0000000   0.0962250   0.0000000), wk =   0.0208333
        k(    4) = (   0.0000000   0.1443376   0.0000000), wk =   0.0208333
        k(    5) = (   0.0000000   0.1924501   0.0000000), wk =   0.0208333
        k(    6) = (   0.0000000   0.2405626   0.0000000), wk =   0.0208333
        k(    7) = (   0.0000000   0.2886751   0.0000000), wk =   0.0208333
        k(    8) = (   0.0000000   0.3367877   0.0000000), wk =   0.0208333
        k(    9) = (   0.0000000   0.3849002   0.0000000), wk =   0.0208333
        k(   10) = (   0.0000000   0.4330127   0.0000000), wk =   0.0208333
        k(   11) = (   0.0000000   0.4811252   0.0000000), wk =   0.0208333
        k(   12) = (   0.0000000   0.5292377   0.0000000), wk =   0.0208333
        k(   13) = (   0.0000000  -0.5773503   0.0000000), wk =   0.0104167
        k(   14) = (   0.0416667   0.0721688   0.0000000), wk =   0.0208333
        k(   15) = (   0.0416667   0.1202813   0.0000000), wk =   0.0416667
        k(   16) = (   0.0416667   0.1683938   0.0000000), wk =   0.0416667
        k(   17) = (   0.0416667   0.2165064   0.0000000), wk =   0.0416667
        k(   18) = (   0.0416667   0.2646189   0.0000000), wk =   0.0416667
        k(   19) = (   0.0416667   0.3127314   0.0000000), wk =   0.0416667
        k(   20) = (   0.0416667   0.3608439   0.0000000), wk =   0.0416667
        k(   21) = (   0.0416667   0.4089564   0.0000000), wk =   0.0416667
        k(   22) = (   0.0416667   0.4570690   0.0000000), wk =   0.0416667
        k(   23) = (   0.0416667   0.5051815   0.0000000), wk =   0.0416667
        k(   24) = (   0.0416667   0.5532940   0.0000000), wk =   0.0416667
        k(   25) = (   0.0833333   0.1443376   0.0000000), wk =   0.0208333
        k(   26) = (   0.0833333   0.1924501   0.0000000), wk =   0.0416667
        k(   27) = (   0.0833333   0.2405626   0.0000000), wk =   0.0416667
        k(   28) = (   0.0833333   0.2886751   0.0000000), wk =   0.0416667
        k(   29) = (   0.0833333   0.3367877   0.0000000), wk =   0.0416667
        k(   30) = (   0.0833333   0.3849002   0.0000000), wk =   0.0416667
        k(   31) = (   0.0833333   0.4330127   0.0000000), wk =   0.0416667
        k(   32) = (   0.0833333   0.4811252   0.0000000), wk =   0.0416667
        k(   33) = (   0.0833333   0.5292377   0.0000000), wk =   0.0416667
        k(   34) = (   0.0833333   0.5773503   0.0000000), wk =   0.0208333
        k(   35) = (   0.1250000   0.2165064   0.0000000), wk =   0.0208333
        k(   36) = (   0.1250000   0.2646189   0.0000000), wk =   0.0416667
        k(   37) = (   0.1250000   0.3127314   0.0000000), wk =   0.0416667
        k(   38) = (   0.1250000   0.3608439   0.0000000), wk =   0.0416667
        k(   39) = (   0.1250000   0.4089564   0.0000000), wk =   0.0416667
        k(   40) = (   0.1250000   0.4570690   0.0000000), wk =   0.0416667
        k(   41) = (   0.1250000   0.5051815   0.0000000), wk =   0.0416667
        k(   42) = (   0.1250000   0.5532940   0.0000000), wk =   0.0416667
        k(   43) = (   0.1666667   0.2886751   0.0000000), wk =   0.0208333
        k(   44) = (   0.1666667   0.3367877   0.0000000), wk =   0.0416667
        k(   45) = (   0.1666667   0.3849002   0.0000000), wk =   0.0416667
        k(   46) = (   0.1666667   0.4330127   0.0000000), wk =   0.0416667
        k(   47) = (   0.1666667   0.4811252   0.0000000), wk =   0.0416667
        k(   48) = (   0.1666667   0.5292377   0.0000000), wk =   0.0416667
        k(   49) = (   0.1666667   0.5773503   0.0000000), wk =   0.0208333
        k(   50) = (   0.2083333   0.3608439   0.0000000), wk =   0.0208333
        k(   51) = (   0.2083333   0.4089564   0.0000000), wk =   0.0416667
        k(   52) = (   0.2083333   0.4570690   0.0000000), wk =   0.0416667
        k(   53) = (   0.2083333   0.5051815   0.0000000), wk =   0.0416667
        k(   54) = (   0.2083333   0.5532940   0.0000000), wk =   0.0416667
        k(   55) = (   0.2500000   0.4330127   0.0000000), wk =   0.0208333
        k(   56) = (   0.2500000   0.4811252   0.0000000), wk =   0.0416667
        k(   57) = (   0.2500000   0.5292377   0.0000000), wk =   0.0416667
        k(   58) = (   0.2500000   0.5773503   0.0000000), wk =   0.0208333
        k(   59) = (   0.2916667   0.5051815   0.0000000), wk =   0.0208333
        k(   60) = (   0.2916667   0.5532940   0.0000000), wk =   0.0416667
        k(   61) = (   0.3333333   0.5773503   0.0000000), wk =   0.0069444

     Dense  grid:   295513 G-vectors     FFT dimensions: (  54,  54, 240)

     Estimated max dynamical RAM per process >     256.16 MB

     Estimated total dynamical RAM >       1.50 GB

     Initial potential from superposition of free atoms

     starting charge   25.99991, renormalised to   28.00000

     negative rho (up, down):  6.485E-04 0.000E+00
     Starting wfcs are   18 randomized atomic wfcs

     total cpu time spent up to now is       11.9 secs

     Self-consistent Calculation

     iteration #  1     ecut=    90.00 Ry     beta= 0.70
     Davidson diagonalization with overlap
     ethr =  1.00E-02,  avg # of iterations =  2.0

     negative rho (up, down):  2.958E-04 0.000E+00

     total cpu time spent up to now is       40.1 secs

     total energy              =    -325.49728221 Ry
     estimated scf accuracy    <       2.41028371 Ry

     iteration #  2     ecut=    90.00 Ry     beta= 0.70
     Davidson diagonalization with overlap
     ethr =  8.61E-03,  avg # of iterations =  2.0

     negative rho (up, down):  2.810E-04 0.000E+00

     total cpu time spent up to now is       71.1 secs

     total energy              =    -326.34895292 Ry
     estimated scf accuracy    <       0.29335594 Ry

     iteration #  3     ecut=    90.00 Ry     beta= 0.70
     Davidson diagonalization with overlap
     ethr =  1.05E-03,  avg # of iterations =  2.1

     negative rho (up, down):  2.857E-04 0.000E+00

     total cpu time spent up to now is       99.7 secs

     total energy              =    -326.38847331 Ry
     estimated scf accuracy    <       0.00610772 Ry

     iteration #  4     ecut=    90.00 Ry     beta= 0.70
     Davidson diagonalization with overlap
     ethr =  2.18E-05,  avg # of iterations =  2.9

     negative rho (up, down):  2.760E-04 0.000E+00

     total cpu time spent up to now is      129.3 secs

     total energy              =    -326.39099048 Ry
     estimated scf accuracy    <       0.00098738 Ry

     iteration #  5     ecut=    90.00 Ry     beta= 0.70
     Davidson diagonalization with overlap
     ethr =  3.53E-06,  avg # of iterations =  2.3

     negative rho (up, down):  2.728E-04 0.000E+00

     total cpu time spent up to now is      157.8 secs

     total energy              =    -326.39124567 Ry
     estimated scf accuracy    <       0.00001065 Ry

     iteration #  6     ecut=    90.00 Ry     beta= 0.70
     Davidson diagonalization with overlap
     ethr =  3.80E-08,  avg # of iterations =  5.0

     negative rho (up, down):  2.728E-04 0.000E+00

     total cpu time spent up to now is      189.4 secs

     End of self-consistent calculation

          k = 0.0000 0.0000 0.0000 ( 37045 PWs)   bands (ev):

   -24.2026 -24.2026 -24.2022 -24.0874 -24.0874 -23.9392 -23.9392 -23.8556
   -23.8556 -23.7932 -12.2883  -4.3391  -3.7539  -3.4297

          k = 0.0000 0.0481 0.0000 ( 36945 PWs)   bands (ev):

   -24.2072 -24.2071 -24.2019 -24.0877 -24.0867 -23.9348 -23.9342 -23.8564
   -23.8553 -23.7931 -12.2735  -4.3237  -4.2016  -3.4634

          k = 0.0000 0.0962 0.0000 ( 36959 PWs)   bands (ev):

   -24.2198 -24.2196 -24.2009 -24.0889 -24.0847 -23.9228 -23.9202 -23.8588
   -23.8541 -23.7927 -12.2291  -4.7817  -4.2777  -3.5574

          k = 0.0000 0.1443 0.0000 ( 36965 PWs)   bands (ev):

   -24.2378 -24.2376 -24.1993 -24.0906 -24.0813 -23.9061 -23.9002 -23.8626
   -23.8524 -23.7918 -12.1553  -5.3628  -4.2015  -3.6950

          k = 0.0000 0.1925 0.0000 ( 36959 PWs)   bands (ev):

   -24.2583 -24.2583 -24.1972 -24.0929 -24.0768 -23.8879 -23.8768 -23.8677
   -23.8501 -23.7895 -12.0524  -5.9328  -4.0958  -3.8570

          k = 0.0000 0.2406 0.0000 ( 36941 PWs)   bands (ev):

   -24.2799 -24.2795 -24.1947 -24.0955 -24.0713 -23.8739 -23.8712 -23.8524
   -23.8476 -23.7851 -11.9213  -6.4853  -4.0267  -3.9617

          k = 0.0000 0.2887 0.0000 ( 36927 PWs)   bands (ev):

   -24.3007 -24.2998 -24.1920 -24.0982 -24.0650 -23.8810 -23.8584 -23.8449
   -23.8287 -23.7776 -11.7631  -7.0152  -4.1914  -3.8010

          k = 0.0000 0.3368 0.0000 ( 36917 PWs)   bands (ev):

   -24.3197 -24.3183 -24.1893 -24.1008 -24.0581 -23.8887 -23.8503 -23.8423
   -23.8067 -23.7673 -11.5799  -7.5173  -4.3420  -3.6165

          k = 0.0000 0.3849 0.0000 ( 36889 PWs)   bands (ev):

   -24.3362 -24.3341 -24.1867 -24.1033 -24.0512 -23.8964 -23.8459 -23.8398
   -23.7876 -23.7557 -11.3758  -7.9854  -4.4719  -3.4129

          k = 0.0000 0.4330 0.0000 ( 36903 PWs)   bands (ev):

   -24.3495 -24.3469 -24.1845 -24.1053 -24.0446 -23.9036 -23.8440 -23.8378
   -23.7720 -23.7448 -11.1586  -8.4095  -4.5769  -3.1986

          k = 0.0000 0.4811 0.0000 ( 36899 PWs)   bands (ev):

   -24.3593 -24.3563 -24.1827 -24.1068 -24.0390 -23.9096 -23.8432 -23.8363
   -23.7605 -23.7361 -10.9452  -8.7718  -4.6539  -2.9907

          k = 0.0000 0.5292 0.0000 ( 36888 PWs)   bands (ev):

   -24.3653 -24.3620 -24.1816 -24.1078 -24.0353 -23.9136 -23.8430 -23.8353
   -23.7534 -23.7306 -10.7716  -9.0351  -4.7007  -2.8238

          k = 0.0000-0.5774 0.0000 ( 36886 PWs)   bands (ev):

   -24.3673 -24.3640 -24.1813 -24.1081 -24.0339 -23.9151 -23.8430 -23.8350
   -23.7511 -23.7287 -10.7001  -9.1365  -4.7165  -2.7559

          k = 0.0417 0.0722 0.0000 ( 36943 PWs)   bands (ev):

   -24.2185 -24.2121 -24.2020 -24.0885 -24.0853 -23.9267 -23.9246 -23.8580
   -23.8545 -23.7929 -12.2439  -4.6244  -4.2930  -3.5309

          k = 0.0417 0.1203 0.0000 ( 36964 PWs)   bands (ev):

   -24.2363 -24.2243 -24.2012 -24.0900 -24.0826 -23.9125 -23.9077 -23.8611
   -23.8530 -23.7922 -12.1847  -5.1549  -4.2319  -3.6554

          k = 0.0417 0.1684 0.0000 ( 36961 PWs)   bands (ev):

   -24.2576 -24.2410 -24.1995 -24.0920 -24.0786 -23.8951 -23.8863 -23.8656
   -23.8510 -23.7905 -12.0964  -5.7048  -4.1409  -3.8151

          k = 0.0417 0.2165 0.0000 ( 36948 PWs)   bands (ev):

   -24.2804 -24.2598 -24.1972 -24.0945 -24.0736 -23.8776 -23.8714 -23.8632
   -23.8485 -23.7869 -11.9794  -6.2506  -4.0210  -3.9902

          k = 0.0417 0.2646 0.0000 ( 36930 PWs)   bands (ev):

   -24.3028 -24.2788 -24.1946 -24.0972 -24.0675 -23.8781 -23.8629 -23.8459
   -23.8402 -23.7803 -11.8346  -6.7816  -4.1653  -3.8734

          k = 0.0417 0.3127 0.0000 ( 36927 PWs)   bands (ev):

   -24.3238 -24.2968 -24.1919 -24.1000 -24.0608 -23.8856 -23.8526 -23.8432
   -23.8188 -23.7701 -11.6635  -7.2908  -4.3294  -3.7005

          k = 0.0417 0.3608 0.0000 ( 36900 PWs)   bands (ev):

   -24.3423 -24.3128 -24.1892 -24.1025 -24.0537 -23.8934 -23.8467 -23.8406
   -23.7998 -23.7576 -11.4692  -7.7714  -4.4747  -3.5057

          k = 0.0417 0.4090 0.0000 ( 36891 PWs)   bands (ev):

   -24.3578 -24.3263 -24.1868 -24.1048 -24.0468 -23.9011 -23.8440 -23.8383
   -23.7839 -23.7449 -11.2571  -8.2154  -4.5959  -3.2953

          k = 0.0417 0.4571 0.0000 ( 36901 PWs)   bands (ev):

   -24.3698 -24.3368 -24.1848 -24.1067 -24.0405 -23.9079 -23.8429 -23.8365
   -23.7715 -23.7339 -11.0386  -8.6094  -4.6895  -3.0810

          k = 0.0417 0.5052 0.0000 ( 36891 PWs)   bands (ev):

   -24.3780 -24.3439 -24.1833 -24.1079 -24.0356 -23.9132 -23.8426 -23.8352
   -23.7630 -23.7260 -10.8383  -8.9275  -4.7532  -2.8871

          k = 0.0417 0.5533 0.0000 ( 36906 PWs)   bands (ev):

   -24.3821 -24.3475 -24.1826 -24.1086 -24.0329 -23.9160 -23.8425 -23.8346
   -23.7587 -23.7219 -10.7064  -9.1185  -4.7853  -2.7612

          k = 0.0833 0.1443 0.0000 ( 36949 PWs)   bands (ev):

   -24.2574 -24.2336 -24.2015 -24.0918 -24.0792 -23.8978 -23.8896 -23.8650
   -23.8512 -23.7907 -12.1111  -5.6192  -4.1560  -3.8145

          k = 0.0833 0.1925 0.0000 ( 36938 PWs)   bands (ev):

   -24.2808 -24.2470 -24.2006 -24.0942 -24.0745 -23.8812 -23.8702 -23.8692
   -23.8489 -23.7875 -12.0085  -6.1159  -4.0507  -4.0045

          k = 0.0833 0.2406 0.0000 ( 36935 PWs)   bands (ev):

   -24.3044 -24.2623 -24.1988 -24.0969 -24.0688 -23.8766 -23.8654 -23.8492
   -23.8463 -23.7810 -11.8776  -6.6186  -4.2016  -3.9171

          k = 0.0833 0.2887 0.0000 ( 36936 PWs)   bands (ev):

   -24.3270 -24.2779 -24.1965 -24.0997 -24.0621 -23.8840 -23.8532 -23.8435
   -23.8308 -23.7703 -11.7196  -7.1133  -4.3901  -3.7569

          k = 0.0833 0.3368 0.0000 ( 36924 PWs)   bands (ev):

   -24.3475 -24.2926 -24.1939 -24.1025 -24.0549 -23.8920 -23.8459 -23.8407
   -23.8140 -23.7562 -11.5366  -7.5900  -4.5602  -3.5728

          k = 0.0833 0.3849 0.0000 ( 36915 PWs)   bands (ev):

   -24.3652 -24.3055 -24.1915 -24.1050 -24.0474 -23.9001 -23.8425 -23.8382
   -23.7992 -23.7413 -11.3324  -8.0400  -4.7054  -3.3693

          k = 0.0833 0.4330 0.0000 ( 36886 PWs)   bands (ev):

   -24.3794 -24.3160 -24.1893 -24.1072 -24.0404 -23.9077 -23.8412 -23.8361
   -23.7869 -23.7279 -11.1146  -8.4520  -4.8217  -3.1546

          k = 0.0833 0.4811 0.0000 ( 36897 PWs)   bands (ev):

   -24.3899 -24.3238 -24.1876 -24.1088 -24.0343 -23.9142 -23.8410 -23.8345
   -23.7777 -23.7174 -10.8995  -8.8074  -4.9063  -2.9450

          k = 0.0833 0.5292 0.0000 ( 36900 PWs)   bands (ev):

   -24.3962 -24.3286 -24.1865 -24.1098 -24.0301 -23.9187 -23.8410 -23.8335
   -23.7720 -23.7108 -10.7229  -9.0688  -4.9577  -2.7753

          k = 0.0833 0.5774 0.0000 ( 36902 PWs)   bands (ev):

   -24.3984 -24.3302 -24.1861 -24.1101 -24.0287 -23.9203 -23.8411 -23.8332
   -23.7701 -23.7086 -10.6494  -9.1706  -4.9749  -2.7055

          k = 0.1250 0.2165 0.0000 ( 36953 PWs)   bands (ev):

   -24.3050 -24.2556 -24.2012 -24.0968 -24.0691 -23.8762 -23.8662 -23.8526
   -23.8463 -23.7812 -11.8920  -6.5590  -4.2250  -3.9317

          k = 0.1250 0.2646 0.0000 ( 36948 PWs)   bands (ev):

   -24.3287 -24.2661 -24.2007 -24.0997 -24.0626 -23.8834 -23.8523 -23.8435
   -23.8388 -23.7700 -11.7477  -7.0131  -4.4468  -3.7852

          k = 0.1250 0.3127 0.0000 ( 36930 PWs)   bands (ev):

   -24.3507 -24.2772 -24.1993 -24.1027 -24.0552 -23.8914 -23.8431 -23.8406
   -23.8261 -23.7548 -11.5772  -7.4645  -4.6523  -3.6134

          k = 0.1250 0.3608 0.0000 ( 36911 PWs)   bands (ev):

   -24.3702 -24.2879 -24.1975 -24.1055 -24.0474 -23.8999 -23.8392 -23.8379
   -23.8133 -23.7382 -11.3831  -7.9023  -4.8316  -3.4193

          k = 0.1250 0.4090 0.0000 ( 36918 PWs)   bands (ev):

   -24.3865 -24.2972 -24.1956 -24.1080 -24.0394 -23.9084 -23.8380 -23.8355
   -23.8017 -23.7226 -11.1705  -8.3158  -4.9791  -3.2087

          k = 0.1250 0.4571 0.0000 ( 36892 PWs)   bands (ev):

   -24.3991 -24.3046 -24.1940 -24.1100 -24.0321 -23.9162 -23.8381 -23.8335
   -23.7923 -23.7099 -10.9498  -8.6903  -5.0916  -2.9925

          k = 0.1250 0.5052 0.0000 ( 36886 PWs)   bands (ev):

   -24.4077 -24.3097 -24.1927 -24.1114 -24.0263 -23.9223 -23.8384 -23.8322
   -23.7857 -23.7009 -10.7444  -8.9997  -5.1674  -2.7938

          k = 0.1250 0.5533 0.0000 ( 36884 PWs)   bands (ev):

   -24.4121 -24.3124 -24.1921 -24.1121 -24.0230 -23.9258 -23.8387 -23.8315
   -23.7824 -23.6963 -10.6061  -9.1905  -5.2055  -2.6617

          k = 0.1667 0.2887 0.0000 ( 36945 PWs)   bands (ev):

   -24.3518 -24.2712 -24.2020 -24.1028 -24.0553 -23.8912 -23.8405 -23.8398
   -23.8327 -23.7543 -11.5908  -7.4190  -4.6906  -3.6269

          k = 0.1667 0.3368 0.0000 ( 36918 PWs)   bands (ev):

   -24.3728 -24.2770 -24.2024 -24.1058 -24.0471 -23.9000 -23.8376 -23.8334
   -23.8248 -23.7364 -11.4087  -7.8251  -4.9121  -3.4445

          k = 0.1667 0.3849 0.0000 ( 36907 PWs)   bands (ev):

   -24.3908 -24.2829 -24.2021 -24.1086 -24.0385 -23.9091 -23.8349 -23.8330
   -23.8143 -23.7192 -11.2047  -8.2211  -5.1003  -3.2419

          k = 0.1667 0.4330 0.0000 ( 36911 PWs)   bands (ev):

   -24.4054 -24.2881 -24.2013 -24.1110 -24.0300 -23.9181 -23.8337 -23.8326
   -23.8052 -23.7045 -10.9854  -8.5951  -5.2497  -3.0260

          k = 0.1667 0.4811 0.0000 ( 36867 PWs)   bands (ev):

   -24.4162 -24.2923 -24.2005 -24.1128 -24.0224 -23.9261 -23.8346 -23.8309
   -23.7983 -23.6933 -10.7649  -8.9289  -5.3577  -2.8115

          k = 0.1667 0.5292 0.0000 ( 36865 PWs)   bands (ev):

   -24.4227 -24.2949 -24.2000 -24.1139 -24.0169 -23.9318 -23.8353 -23.8298
   -23.7941 -23.6863 -10.5779  -9.1849  -5.4228  -2.6318

          k = 0.1667 0.5774 0.0000 ( 36858 PWs)   bands (ev):

   -24.4249 -24.2958 -24.1998 -24.1143 -24.0148 -23.9339 -23.8356 -23.8294
   -23.7927 -23.6839 -10.4971  -9.2890  -5.4445  -2.5549

          k = 0.2083 0.3608 0.0000 ( 36895 PWs)   bands (ev):

   -24.3923 -24.2772 -24.2050 -24.1089 -24.0382 -23.9094 -23.8347 -23.8276
   -23.8222 -23.7181 -11.2162  -8.1868  -5.1455  -3.2530

          k = 0.2083 0.4090 0.0000 ( 36914 PWs)   bands (ev):

   -24.4087 -24.2778 -24.2069 -24.1116 -24.0287 -23.9193 -23.8321 -23.8284
   -23.8150 -23.7017 -11.0037  -8.5410  -5.3398  -3.0433

          k = 0.2083 0.4571 0.0000 ( 36887 PWs)   bands (ev):

   -24.4213 -24.2787 -24.2081 -24.1138 -24.0194 -23.9289 -23.8300 -23.8298
   -23.8087 -23.6885 -10.7793  -8.8755  -5.4886  -2.8240

          k = 0.2083 0.5052 0.0000 ( 36893 PWs)   bands (ev):

   -24.4300 -24.2794 -24.2088 -24.1154 -24.0114 -23.9372 -23.8311 -23.8285
   -23.8043 -23.6793 -10.5625  -9.1675  -5.5888  -2.6144

          k = 0.2083 0.5533 0.0000 ( 36860 PWs)   bands (ev):

   -24.4344 -24.2799 -24.2090 -24.1162 -24.0065 -23.9422 -23.8318 -23.8277
   -23.8021 -23.6746 -10.4065  -9.3618  -5.6392  -2.4654

          k = 0.2500 0.4330 0.0000 ( 36905 PWs)   bands (ev):

   -24.4231 -24.2731 -24.2116 -24.1142 -24.0183 -23.9300 -23.8296 -23.8265
   -23.8140 -23.6869 -10.7844  -8.8556  -5.5352  -2.8284

          k = 0.2500 0.4811 0.0000 ( 36872 PWs)   bands (ev):

   -24.4337 -24.2691 -24.2156 -24.1162 -24.0081 -23.9404 -23.8278 -23.8268
   -23.8118 -23.6757 -10.5562  -9.1537  -5.6786  -2.6068

          k = 0.2500 0.5292 0.0000 ( 36869 PWs)   bands (ev):

   -24.4401 -24.2664 -24.2184 -24.1174 -23.9996 -23.9491 -23.8274 -23.8266
   -23.8100 -23.6688 -10.3459  -9.4066  -5.7657  -2.4046

          k = 0.2500 0.5774 0.0000 ( 36858 PWs)   bands (ev):

   -24.4423 -24.2654 -24.2194 -24.1178 -23.9959 -23.9528 -23.8277 -23.8262
   -23.8093 -23.6665 -10.2423  -9.5246  -5.7950  -2.3060

          k = 0.2917 0.5052 0.0000 ( 36877 PWs)   bands (ev):

   -24.4421 -24.2602 -24.2232 -24.1178 -23.9967 -23.9520 -23.8262 -23.8247
   -23.8140 -23.6668 -10.3245  -9.4218  -5.8096  -2.3829

          k = 0.2917 0.5533 0.0000 ( 36872 PWs)   bands (ev):

   -24.4464 -24.2535 -24.2292 -24.1187 -23.9871 -23.9616 -23.8254 -23.8236
   -23.8150 -23.6623 -10.1185  -9.6459  -5.8763  -2.1858

          k = 0.3333 0.5774 0.0000 ( 36846 PWs)   bands (ev):

   -24.4484 -24.2410 -24.2410 -24.1191 -23.9744 -23.9744 -23.8250 -23.8196
   -23.8196 -23.6601  -9.8841  -9.8841  -5.9139  -1.9618

     highest occupied level (ev):    -1.9618

!    total energy              =    -326.39133342 Ry
     estimated scf accuracy    <       0.00000055 Ry

     The total energy is the sum of the following terms:
     one-electron contribution =    -882.72419729 Ry
     hartree contribution      =     448.42167281 Ry
     xc contribution           =     -95.06711271 Ry
     ewald contribution        =     202.97830378 Ry

     convergence has been achieved in   6 iterations

     Writing output data file ../tmp/stanene.save/

     init_run     :     11.30s CPU     11.75s WALL (       1 calls)
     electrons    :    173.19s CPU    177.55s WALL (       1 calls)

     Called by init_run:
     wfcinit      :     10.54s CPU     10.90s WALL (       1 calls)
     potinit      :      0.20s CPU      0.21s WALL (       1 calls)
     hinit0       :      0.30s CPU      0.30s WALL (       1 calls)

     Called by electrons:
     c_bands      :    150.52s CPU    153.80s WALL (       6 calls)
     sum_band     :     20.78s CPU     21.61s WALL (       6 calls)
     v_of_rho     :      0.65s CPU      0.67s WALL (       7 calls)
     newd         :      1.34s CPU      1.61s WALL (       7 calls)
     mix_rho      :      0.10s CPU      0.12s WALL (       6 calls)

     Called by c_bands:
     init_us_2    :      1.48s CPU      1.48s WALL (     793 calls)
     cegterg      :    145.13s CPU    148.39s WALL (     366 calls)

     Called by *egterg:
     cdiaghg      :      0.73s CPU      0.74s WALL (    1356 calls)
     h_psi        :    110.91s CPU    114.47s WALL (    1417 calls)
     s_psi        :      6.54s CPU      6.55s WALL (    1417 calls)
     g_psi        :      0.54s CPU      0.55s WALL (     990 calls)

     Called by h_psi:
     h_psi:calbec :     10.73s CPU     10.97s WALL (    1417 calls)
     vloc_psi     :     92.58s CPU     95.87s WALL (    1417 calls)
     add_vuspsi   :      7.23s CPU      7.27s WALL (    1417 calls)

     General routines
     calbec       :     13.99s CPU     14.27s WALL (    1783 calls)
     fft          :      0.52s CPU      0.54s WALL (      77 calls)
     ffts         :      0.03s CPU      0.03s WALL (       6 calls)
     fftw         :     95.29s CPU     98.66s WALL (   38730 calls)

     Parallel routines
     fft_scatt_xy :     12.42s CPU     12.93s WALL (   38813 calls)
     fft_scatt_yz :     44.82s CPU     46.35s WALL (   38813 calls)

     PWSCF        :   3m 4.84s CPU   3m10.03s WALL


   This run was terminated on:   0:29:24  20Jan2024            

=------------------------------------------------------------------------------=
   JOB DONE.
=------------------------------------------------------------------------------=
