
     Program PWSCF v.6.7MaX starts on 20Jan2024 at  0:20:32 

     This program is part of the open-source Quantum ESPRESSO suite
     for quantum simulation of materials; please cite
         "P. Giannozzi et al., J. Phys.:Condens. Matter 21 395502 (2009);
         "P. Giannozzi et al., J. Phys.:Condens. Matter 29 465901 (2017);
          URL http://www.quantum-espresso.org", 
     in publications or presentations arising from this work. More details at
     http://www.quantum-espresso.org/quote

     Parallel version (MPI), running on     6 processors

     MPI processes distributed on     1 nodes
     R & G space division:  proc/nbgrp/npool/nimage =       6
     Waiting for input...
     Reading input from standard input

     Current dimensions of program PWSCF are:
     Max number of different atomic species (ntypx) = 10
     Max number of k-points (npk) =  40000
     Max angular momentum in pseudopotentials (lmaxx) =  3

     Subspace diagonalization in iterative solution of the eigenvalue problem:
     one sub-group per band group will be used
     scalapack distributed-memory algorithm (size of sub-group:  2*  2 procs)


     Parallelization info
     --------------------
     sticks:   dense  smooth     PW     G-vecs:    dense   smooth      PW
     Min         214     214     61                26776    26776    4007
     Max         215     215     62                26799    26799    4017
     Sum        1285    1285    367               160699   160699   24069



     bravais-lattice index     =            4
     lattice parameter (alat)  =       8.8439  a.u.
     unit-cell volume          =    2560.0529 (a.u.)^3
     number of atoms/cell      =            2
     number of atomic types    =            1
     number of electrons       =        28.00
     number of Kohn-Sham states=           14
     kinetic-energy cutoff     =      60.0000  Ry
     charge density cutoff     =     240.0000  Ry
     scf convergence threshold =      1.0E-06
     mixing beta               =       0.7000
     number of iterations used =            8  plain     mixing
     Exchange-correlation= SLA  PW   PBE  PBE
                           (   1   4   3   4   0   0   0)

     celldm(1)=   8.843918  celldm(2)=   0.000000  celldm(3)=   4.273504
     celldm(4)=   0.000000  celldm(5)=   0.000000  celldm(6)=   0.000000

     crystal axes: (cart. coord. in units of alat)
               a(1) = (   1.000000   0.000000   0.000000 )  
               a(2) = (  -0.500000   0.866025   0.000000 )  
               a(3) = (   0.000000   0.000000   4.273504 )  

     reciprocal axes: (cart. coord. in units 2 pi/alat)
               b(1) = (  1.000000  0.577350 -0.000000 )  
               b(2) = (  0.000000  1.154701  0.000000 )  
               b(3) = (  0.000000 -0.000000  0.234000 )  


     PseudoPot. # 1 for Sn read from file:
     ../pseudo/Sn_pbe_v1.uspp.F.UPF
     MD5 check sum: 4cf58ce39ec5d5d420df3dd08604eb00
     Pseudo is Ultrasoft + core correction, Zval = 14.0
     Generated by new atomic code, or converted to UPF format
     Using radial grid of  891 points,  6 beta functions with: 
                l(1) =   0
                l(2) =   0
                l(3) =   1
                l(4) =   1
                l(5) =   2
                l(6) =   2
     Q(r) pseudized with  6 coefficients,  rinner =    1.200   1.200   1.200
                                                       1.200   1.200

     atomic species   valence    mass     pseudopotential
        Sn            14.00   118.71000     Sn( 1.00)

     24 Sym. Ops., with inversion, found



   Cartesian axes

     site n.     atom                  positions (alat units)
         1           Sn  tau(   1) = (   0.0000000   0.5773503   2.1367521  )
         2           Sn  tau(   2) = (   0.5000000   0.2886751   2.1367521  )

     number of k points=    61
                       cart. coord. in units 2pi/alat
        k(    1) = (   0.0000000   0.0000000   0.0000000), wk =   0.0034722
        k(    2) = (   0.0000000   0.0481125   0.0000000), wk =   0.0208333
        k(    3) = (   0.0000000   0.0962250   0.0000000), wk =   0.0208333
        k(    4) = (   0.0000000   0.1443376   0.0000000), wk =   0.0208333
        k(    5) = (   0.0000000   0.1924501   0.0000000), wk =   0.0208333
        k(    6) = (   0.0000000   0.2405626   0.0000000), wk =   0.0208333
        k(    7) = (   0.0000000   0.2886751   0.0000000), wk =   0.0208333
        k(    8) = (   0.0000000   0.3367877   0.0000000), wk =   0.0208333
        k(    9) = (   0.0000000   0.3849002   0.0000000), wk =   0.0208333
        k(   10) = (   0.0000000   0.4330127   0.0000000), wk =   0.0208333
        k(   11) = (   0.0000000   0.4811252   0.0000000), wk =   0.0208333
        k(   12) = (   0.0000000   0.5292377   0.0000000), wk =   0.0208333
        k(   13) = (   0.0000000  -0.5773503   0.0000000), wk =   0.0104167
        k(   14) = (   0.0416667   0.0721688   0.0000000), wk =   0.0208333
        k(   15) = (   0.0416667   0.1202813   0.0000000), wk =   0.0416667
        k(   16) = (   0.0416667   0.1683938   0.0000000), wk =   0.0416667
        k(   17) = (   0.0416667   0.2165064   0.0000000), wk =   0.0416667
        k(   18) = (   0.0416667   0.2646189   0.0000000), wk =   0.0416667
        k(   19) = (   0.0416667   0.3127314   0.0000000), wk =   0.0416667
        k(   20) = (   0.0416667   0.3608439   0.0000000), wk =   0.0416667
        k(   21) = (   0.0416667   0.4089564   0.0000000), wk =   0.0416667
        k(   22) = (   0.0416667   0.4570690   0.0000000), wk =   0.0416667
        k(   23) = (   0.0416667   0.5051815   0.0000000), wk =   0.0416667
        k(   24) = (   0.0416667   0.5532940   0.0000000), wk =   0.0416667
        k(   25) = (   0.0833333   0.1443376   0.0000000), wk =   0.0208333
        k(   26) = (   0.0833333   0.1924501   0.0000000), wk =   0.0416667
        k(   27) = (   0.0833333   0.2405626   0.0000000), wk =   0.0416667
        k(   28) = (   0.0833333   0.2886751   0.0000000), wk =   0.0416667
        k(   29) = (   0.0833333   0.3367877   0.0000000), wk =   0.0416667
        k(   30) = (   0.0833333   0.3849002   0.0000000), wk =   0.0416667
        k(   31) = (   0.0833333   0.4330127   0.0000000), wk =   0.0416667
        k(   32) = (   0.0833333   0.4811252   0.0000000), wk =   0.0416667
        k(   33) = (   0.0833333   0.5292377   0.0000000), wk =   0.0416667
        k(   34) = (   0.0833333   0.5773503   0.0000000), wk =   0.0208333
        k(   35) = (   0.1250000   0.2165064   0.0000000), wk =   0.0208333
        k(   36) = (   0.1250000   0.2646189   0.0000000), wk =   0.0416667
        k(   37) = (   0.1250000   0.3127314   0.0000000), wk =   0.0416667
        k(   38) = (   0.1250000   0.3608439   0.0000000), wk =   0.0416667
        k(   39) = (   0.1250000   0.4089564   0.0000000), wk =   0.0416667
        k(   40) = (   0.1250000   0.4570690   0.0000000), wk =   0.0416667
        k(   41) = (   0.1250000   0.5051815   0.0000000), wk =   0.0416667
        k(   42) = (   0.1250000   0.5532940   0.0000000), wk =   0.0416667
        k(   43) = (   0.1666667   0.2886751   0.0000000), wk =   0.0208333
        k(   44) = (   0.1666667   0.3367877   0.0000000), wk =   0.0416667
        k(   45) = (   0.1666667   0.3849002   0.0000000), wk =   0.0416667
        k(   46) = (   0.1666667   0.4330127   0.0000000), wk =   0.0416667
        k(   47) = (   0.1666667   0.4811252   0.0000000), wk =   0.0416667
        k(   48) = (   0.1666667   0.5292377   0.0000000), wk =   0.0416667
        k(   49) = (   0.1666667   0.5773503   0.0000000), wk =   0.0208333
        k(   50) = (   0.2083333   0.3608439   0.0000000), wk =   0.0208333
        k(   51) = (   0.2083333   0.4089564   0.0000000), wk =   0.0416667
        k(   52) = (   0.2083333   0.4570690   0.0000000), wk =   0.0416667
        k(   53) = (   0.2083333   0.5051815   0.0000000), wk =   0.0416667
        k(   54) = (   0.2083333   0.5532940   0.0000000), wk =   0.0416667
        k(   55) = (   0.2500000   0.4330127   0.0000000), wk =   0.0208333
        k(   56) = (   0.2500000   0.4811252   0.0000000), wk =   0.0416667
        k(   57) = (   0.2500000   0.5292377   0.0000000), wk =   0.0416667
        k(   58) = (   0.2500000   0.5773503   0.0000000), wk =   0.0208333
        k(   59) = (   0.2916667   0.5051815   0.0000000), wk =   0.0208333
        k(   60) = (   0.2916667   0.5532940   0.0000000), wk =   0.0416667
        k(   61) = (   0.3333333   0.5773503   0.0000000), wk =   0.0069444

     Dense  grid:   160699 G-vectors     FFT dimensions: (  45,  45, 192)

     Estimated max dynamical RAM per process >     139.85 MB

     Estimated total dynamical RAM >     839.12 MB

     Initial potential from superposition of free atoms

     starting charge   25.99991, renormalised to   28.00000

     negative rho (up, down):  5.017E-03 0.000E+00
     Starting wfcs are   18 randomized atomic wfcs

     total cpu time spent up to now is        4.5 secs

     Self-consistent Calculation

     iteration #  1     ecut=    60.00 Ry     beta= 0.70
     Davidson diagonalization with overlap
     ethr =  1.00E-02,  avg # of iterations =  2.0

     negative rho (up, down):  3.310E-03 0.000E+00

     total cpu time spent up to now is       16.6 secs

     total energy              =    -325.49388677 Ry
     estimated scf accuracy    <       2.41395713 Ry

     iteration #  2     ecut=    60.00 Ry     beta= 0.70
     Davidson diagonalization with overlap
     ethr =  8.62E-03,  avg # of iterations =  2.0

     negative rho (up, down):  3.600E-03 0.000E+00

     total cpu time spent up to now is       29.5 secs

     total energy              =    -326.34784554 Ry
     estimated scf accuracy    <       0.29504646 Ry

     iteration #  3     ecut=    60.00 Ry     beta= 0.70
     Davidson diagonalization with overlap
     ethr =  1.05E-03,  avg # of iterations =  2.1

     negative rho (up, down):  3.776E-03 0.000E+00

     total cpu time spent up to now is       42.0 secs

     total energy              =    -326.38766364 Ry
     estimated scf accuracy    <       0.00613210 Ry

     iteration #  4     ecut=    60.00 Ry     beta= 0.70
     Davidson diagonalization with overlap
     ethr =  2.19E-05,  avg # of iterations =  3.0

     negative rho (up, down):  3.700E-03 0.000E+00

     total cpu time spent up to now is       55.8 secs

     total energy              =    -326.39019098 Ry
     estimated scf accuracy    <       0.00099394 Ry

     iteration #  5     ecut=    60.00 Ry     beta= 0.70
     Davidson diagonalization with overlap
     ethr =  3.55E-06,  avg # of iterations =  2.3

     negative rho (up, down):  3.678E-03 0.000E+00

     total cpu time spent up to now is       68.1 secs

     total energy              =    -326.39044646 Ry
     estimated scf accuracy    <       0.00000955 Ry

     iteration #  6     ecut=    60.00 Ry     beta= 0.70
     Davidson diagonalization with overlap
     ethr =  3.41E-08,  avg # of iterations =  5.0

     negative rho (up, down):  3.681E-03 0.000E+00

     total cpu time spent up to now is       82.3 secs

     End of self-consistent calculation

          k = 0.0000 0.0000 0.0000 ( 20001 PWs)   bands (ev):

   -24.2121 -24.2121 -24.2107 -24.0982 -24.0982 -23.9487 -23.9487 -23.8666
   -23.8666 -23.8017 -12.2954  -4.3460  -3.7612  -3.4367

          k = 0.0000 0.0481 0.0000 ( 20007 PWs)   bands (ev):

   -24.2167 -24.2164 -24.2106 -24.0986 -24.0975 -23.9443 -23.9436 -23.8674
   -23.8662 -23.8017 -12.2806  -4.3306  -4.2088  -3.4703

          k = 0.0000 0.0962 0.0000 ( 19993 PWs)   bands (ev):

   -24.2293 -24.2288 -24.2097 -24.0997 -24.0955 -23.9323 -23.9297 -23.8697
   -23.8651 -23.8013 -12.2362  -4.7889  -4.2846  -3.5643

          k = 0.0000 0.1443 0.0000 ( 20039 PWs)   bands (ev):

   -24.2472 -24.2468 -24.2081 -24.1015 -24.0922 -23.9155 -23.9097 -23.8735
   -23.8633 -23.8004 -12.1623  -5.3700  -4.2084  -3.7019

          k = 0.0000 0.1925 0.0000 ( 20061 PWs)   bands (ev):

   -24.2678 -24.2676 -24.2060 -24.1037 -24.0877 -23.8973 -23.8863 -23.8786
   -23.8611 -23.7982 -12.0595  -5.9400  -4.1026  -3.8639

          k = 0.0000 0.2406 0.0000 ( 20045 PWs)   bands (ev):

   -24.2891 -24.2889 -24.2035 -24.1063 -24.0822 -23.8849 -23.8805 -23.8620
   -23.8585 -23.7938 -11.9284  -6.4925  -4.0336  -3.9685

          k = 0.0000 0.2887 0.0000 ( 20055 PWs)   bands (ev):

   -24.3099 -24.3092 -24.2008 -24.1090 -24.0758 -23.8920 -23.8675 -23.8558
   -23.8382 -23.7865 -11.7702  -7.0223  -4.1982  -3.8077

          k = 0.0000 0.3368 0.0000 ( 20085 PWs)   bands (ev):

   -24.3290 -24.3277 -24.1981 -24.1117 -24.0690 -23.8996 -23.8592 -23.8532
   -23.8163 -23.7763 -11.5870  -7.5245  -4.3488  -3.6232

          k = 0.0000 0.3849 0.0000 ( 20131 PWs)   bands (ev):

   -24.3454 -24.3435 -24.1955 -24.1141 -24.0620 -23.9073 -23.8548 -23.8508
   -23.7972 -23.7648 -11.3829  -7.9925  -4.4788  -3.4195

          k = 0.0000 0.4330 0.0000 ( 20143 PWs)   bands (ev):

   -24.3588 -24.3563 -24.1932 -24.1161 -24.0554 -23.9145 -23.8527 -23.8488
   -23.7816 -23.7540 -11.1658  -8.4166  -4.5837  -3.2051

          k = 0.0000 0.4811 0.0000 ( 20129 PWs)   bands (ev):

   -24.3686 -24.3657 -24.1915 -24.1177 -24.0499 -23.9205 -23.8520 -23.8472
   -23.7700 -23.7454 -10.9524  -8.7788  -4.6606  -2.9970

          k = 0.0000 0.5292 0.0000 ( 20120 PWs)   bands (ev):

   -24.3745 -24.3714 -24.1904 -24.1186 -24.0461 -23.9246 -23.8517 -23.8463
   -23.7630 -23.7398 -10.7788  -9.0421  -4.7075  -2.8299

          k = 0.0000-0.5774 0.0000 ( 20096 PWs)   bands (ev):

   -24.3766 -24.3734 -24.1900 -24.1190 -24.0448 -23.9260 -23.8517 -23.8459
   -23.7606 -23.7380 -10.7073  -9.1436  -4.7233  -2.7618

          k = 0.0417 0.0722 0.0000 ( 20005 PWs)   bands (ev):

   -24.2278 -24.2216 -24.2107 -24.0994 -24.0962 -23.9361 -23.9341 -23.8689
   -23.8654 -23.8014 -12.2509  -4.6316  -4.2999  -3.5378

          k = 0.0417 0.1203 0.0000 ( 20013 PWs)   bands (ev):

   -24.2456 -24.2336 -24.2099 -24.1008 -24.0934 -23.9219 -23.9172 -23.8720
   -23.8640 -23.8008 -12.1918  -5.1621  -4.2388  -3.6623

          k = 0.0417 0.1684 0.0000 ( 20052 PWs)   bands (ev):

   -24.2670 -24.2504 -24.2082 -24.1029 -24.0895 -23.9045 -23.8958 -23.8765
   -23.8619 -23.7991 -12.1035  -5.7120  -4.1478  -3.8220

          k = 0.0417 0.2165 0.0000 ( 20055 PWs)   bands (ev):

   -24.2897 -24.2691 -24.2060 -24.1054 -24.0844 -23.8870 -23.8823 -23.8727
   -23.8595 -23.7956 -11.9865  -6.2578  -4.0278  -3.9971

          k = 0.0417 0.2646 0.0000 ( 20075 PWs)   bands (ev):

   -24.3122 -24.2881 -24.2034 -24.1081 -24.0784 -23.8891 -23.8721 -23.8568
   -23.8497 -23.7892 -11.8417  -6.7888  -4.1722  -3.8802

          k = 0.0417 0.3127 0.0000 ( 20077 PWs)   bands (ev):

   -24.3331 -24.3061 -24.2007 -24.1108 -24.0717 -23.8966 -23.8616 -23.8541
   -23.8283 -23.7792 -11.6706  -7.2979  -4.3362  -3.7072

          k = 0.0417 0.3608 0.0000 ( 20090 PWs)   bands (ev):

   -24.3516 -24.3221 -24.1980 -24.1134 -24.0646 -23.9044 -23.8557 -23.8515
   -23.8093 -23.7668 -11.4763  -7.7786  -4.4814  -3.5124

          k = 0.0417 0.4090 0.0000 ( 20107 PWs)   bands (ev):

   -24.3671 -24.3356 -24.1956 -24.1157 -24.0576 -23.9120 -23.8528 -23.8493
   -23.7933 -23.7541 -11.2643  -8.2225  -4.6027  -3.3018

          k = 0.0417 0.4571 0.0000 ( 20118 PWs)   bands (ev):

   -24.3791 -24.3461 -24.1935 -24.1175 -24.0513 -23.9188 -23.8516 -23.8475
   -23.7809 -23.7432 -11.0458  -8.6165  -4.6963  -3.0874

          k = 0.0417 0.5052 0.0000 ( 20132 PWs)   bands (ev):

   -24.3873 -24.3532 -24.1921 -24.1188 -24.0465 -23.9241 -23.8513 -23.8462
   -23.7724 -23.7353 -10.8454  -8.9346  -4.7599  -2.8933

          k = 0.0417 0.5533 0.0000 ( 20126 PWs)   bands (ev):

   -24.3914 -24.3568 -24.1914 -24.1194 -24.0438 -23.9270 -23.8512 -23.8455
   -23.7681 -23.7312 -10.7135  -9.1255  -4.7921  -2.7672

          k = 0.0833 0.1443 0.0000 ( 20045 PWs)   bands (ev):

   -24.2668 -24.2430 -24.2102 -24.1026 -24.0900 -23.9072 -23.8991 -23.8759
   -23.8622 -23.7994 -12.1182  -5.6264  -4.1629  -3.8214

          k = 0.0833 0.1925 0.0000 ( 20059 PWs)   bands (ev):

   -24.2901 -24.2563 -24.2093 -24.1050 -24.0854 -23.8906 -23.8811 -23.8786
   -23.8599 -23.7962 -12.0156  -6.1231  -4.0575  -4.0113

          k = 0.0833 0.2406 0.0000 ( 20083 PWs)   bands (ev):

   -24.3138 -24.2716 -24.2075 -24.1077 -24.0796 -23.8876 -23.8747 -23.8586
   -23.8572 -23.7899 -11.8847  -6.6258  -4.2084  -3.9239

          k = 0.0833 0.2887 0.0000 ( 20094 PWs)   bands (ev):

   -24.3364 -24.2872 -24.2052 -24.1105 -24.0730 -23.8949 -23.8624 -23.8544
   -23.8401 -23.7793 -11.7267  -7.1204  -4.3969  -3.7636

          k = 0.0833 0.3368 0.0000 ( 20094 PWs)   bands (ev):

   -24.3569 -24.3019 -24.2027 -24.1133 -24.0657 -23.9029 -23.8549 -23.8517
   -23.8234 -23.7654 -11.5437  -7.5972  -4.5670  -3.5795

          k = 0.0833 0.3849 0.0000 ( 20088 PWs)   bands (ev):

   -24.3745 -24.3148 -24.2002 -24.1159 -24.0583 -23.9110 -23.8514 -23.8492
   -23.8085 -23.7506 -11.3395  -8.0471  -4.7122  -3.3759

          k = 0.0833 0.4330 0.0000 ( 20111 PWs)   bands (ev):

   -24.3888 -24.3253 -24.1981 -24.1180 -24.0512 -23.9187 -23.8500 -23.8471
   -23.7962 -23.7373 -11.1217  -8.4591  -4.8284  -3.1610

          k = 0.0833 0.4811 0.0000 ( 20119 PWs)   bands (ev):

   -24.3992 -24.3331 -24.1964 -24.1196 -24.0452 -23.9252 -23.8497 -23.8455
   -23.7871 -23.7268 -10.9066  -8.8145  -4.9130  -2.9513

          k = 0.0833 0.5292 0.0000 ( 20109 PWs)   bands (ev):

   -24.4056 -24.3379 -24.1953 -24.1206 -24.0410 -23.9296 -23.8497 -23.8445
   -23.7814 -23.7203 -10.7300  -9.0759  -4.9644  -2.7814

          k = 0.0833 0.5774 0.0000 ( 20128 PWs)   bands (ev):

   -24.4077 -24.3395 -24.1949 -24.1210 -24.0395 -23.9312 -23.8498 -23.8442
   -23.7795 -23.7180 -10.6566  -9.1777  -4.9816  -2.7114

          k = 0.1250 0.2165 0.0000 ( 20077 PWs)   bands (ev):

   -24.3143 -24.2650 -24.2099 -24.1076 -24.0800 -23.8871 -23.8756 -23.8619
   -23.8573 -23.7900 -11.8991  -6.5662  -4.2318  -3.9385

          k = 0.1250 0.2646 0.0000 ( 20086 PWs)   bands (ev):

   -24.3380 -24.2755 -24.2094 -24.1105 -24.0734 -23.8943 -23.8616 -23.8545
   -23.8479 -23.7791 -11.7548  -7.0203  -4.4536  -3.7920

          k = 0.1250 0.3127 0.0000 ( 20092 PWs)   bands (ev):

   -24.3601 -24.2866 -24.2081 -24.1135 -24.0661 -23.9023 -23.8522 -23.8516
   -23.8353 -23.7640 -11.5843  -7.4717  -4.6591  -3.6200

          k = 0.1250 0.3608 0.0000 ( 20080 PWs)   bands (ev):

   -24.3796 -24.2972 -24.2063 -24.1163 -24.0582 -23.9108 -23.8488 -23.8481
   -23.8225 -23.7475 -11.3903  -7.9095  -4.8383  -3.4259

          k = 0.1250 0.4090 0.0000 ( 20114 PWs)   bands (ev):

   -24.3959 -24.3064 -24.2045 -24.1188 -24.0503 -23.9193 -23.8469 -23.8464
   -23.8109 -23.7320 -11.1776  -8.3229  -4.9857  -3.2152

          k = 0.1250 0.4571 0.0000 ( 20113 PWs)   bands (ev):

   -24.4085 -24.3139 -24.2028 -24.1208 -24.0430 -23.9271 -23.8468 -23.8445
   -23.8015 -23.7193 -10.9569  -8.6975  -5.0982  -2.9988

          k = 0.1250 0.5052 0.0000 ( 20113 PWs)   bands (ev):

   -24.4171 -24.3190 -24.2016 -24.1222 -24.0372 -23.9332 -23.8472 -23.8431
   -23.7950 -23.7104 -10.7516  -9.0068  -5.1741  -2.8000

          k = 0.1250 0.5533 0.0000 ( 20114 PWs)   bands (ev):

   -24.4214 -24.3216 -24.2009 -24.1229 -24.0339 -23.9367 -23.8474 -23.8424
   -23.7917 -23.7058 -10.6133  -9.1976  -5.2122  -2.6677

          k = 0.1667 0.2887 0.0000 ( 20089 PWs)   bands (ev):

   -24.3611 -24.2805 -24.2107 -24.1136 -24.0661 -23.9022 -23.8515 -23.8491
   -23.8417 -23.7635 -11.5979  -7.4262  -4.6973  -3.6336

          k = 0.1667 0.3368 0.0000 ( 20084 PWs)   bands (ev):

   -24.3821 -24.2863 -24.2112 -24.1167 -24.0580 -23.9109 -23.8486 -23.8425
   -23.8339 -23.7458 -11.4158  -7.8322  -4.9187  -3.4511

          k = 0.1667 0.3849 0.0000 ( 20093 PWs)   bands (ev):

   -24.4002 -24.2921 -24.2109 -24.1195 -24.0494 -23.9200 -23.8458 -23.8418
   -23.8234 -23.7287 -11.2119  -8.2282  -5.1069  -3.2484

          k = 0.1667 0.4330 0.0000 ( 20113 PWs)   bands (ev):

   -24.4148 -24.2974 -24.2102 -24.1218 -24.0409 -23.9290 -23.8436 -23.8425
   -23.8143 -23.7140 -10.9925  -8.6023  -5.2563  -3.0324

          k = 0.1667 0.4811 0.0000 ( 20107 PWs)   bands (ev):

   -24.4255 -24.3015 -24.2094 -24.1236 -24.0333 -23.9370 -23.8434 -23.8418
   -23.8075 -23.7028 -10.7720  -8.9360  -5.3642  -2.8177

          k = 0.1667 0.5292 0.0000 ( 20106 PWs)   bands (ev):

   -24.4321 -24.3041 -24.2088 -24.1248 -24.0278 -23.9427 -23.8441 -23.8407
   -23.8033 -23.6958 -10.5851  -9.1920  -5.4293  -2.6379

          k = 0.1667 0.5774 0.0000 ( 20103 PWs)   bands (ev):

   -24.4343 -24.3050 -24.2086 -24.1252 -24.0257 -23.9448 -23.8444 -23.8404
   -23.8019 -23.6934 -10.5043  -9.2961  -5.4511  -2.5609

          k = 0.2083 0.3608 0.0000 ( 20087 PWs)   bands (ev):

   -24.4017 -24.2865 -24.2138 -24.1197 -24.0490 -23.9204 -23.8456 -23.8365
   -23.8314 -23.7275 -11.2234  -8.1940  -5.1521  -3.2596

          k = 0.2083 0.4090 0.0000 ( 20099 PWs)   bands (ev):

   -24.4180 -24.2871 -24.2158 -24.1225 -24.0396 -23.9302 -23.8430 -23.8372
   -23.8241 -23.7112 -11.0109  -8.5481  -5.3464  -3.0498

          k = 0.2083 0.4571 0.0000 ( 20115 PWs)   bands (ev):

   -24.4307 -24.2879 -24.2170 -24.1247 -24.0303 -23.9398 -23.8409 -23.8387
   -23.8179 -23.6980 -10.7864  -8.8826  -5.4952  -2.8303

          k = 0.2083 0.5052 0.0000 ( 20122 PWs)   bands (ev):

   -24.4393 -24.2886 -24.2177 -24.1262 -24.0223 -23.9481 -23.8399 -23.8394
   -23.8135 -23.6888 -10.5697  -9.1747  -5.5954  -2.6206

          k = 0.2083 0.5533 0.0000 ( 20133 PWs)   bands (ev):

   -24.4437 -24.2891 -24.2179 -24.1270 -24.0174 -23.9531 -23.8406 -23.8387
   -23.8112 -23.6841 -10.4137  -9.3689  -5.6457  -2.4714

          k = 0.2500 0.4330 0.0000 ( 20133 PWs)   bands (ev):

   -24.4324 -24.2823 -24.2205 -24.1250 -24.0292 -23.9409 -23.8406 -23.8353
   -23.8231 -23.6964 -10.7916  -8.8627  -5.5418  -2.8348

          k = 0.2500 0.4811 0.0000 ( 20115 PWs)   bands (ev):

   -24.4430 -24.2783 -24.2245 -24.1270 -24.0190 -23.9513 -23.8387 -23.8356
   -23.8209 -23.6853 -10.5633  -9.1608  -5.6851  -2.6130

          k = 0.2500 0.5292 0.0000 ( 20109 PWs)   bands (ev):

   -24.4495 -24.2755 -24.2273 -24.1282 -24.0105 -23.9600 -23.8376 -23.8363
   -23.8190 -23.6784 -10.3531  -9.4138  -5.7722  -2.4107

          k = 0.2500 0.5774 0.0000 ( 20109 PWs)   bands (ev):

   -24.4517 -24.2745 -24.2284 -24.1287 -24.0068 -23.9637 -23.8372 -23.8366
   -23.8184 -23.6760 -10.2495  -9.5318  -5.8015  -2.3120

          k = 0.2917 0.5052 0.0000 ( 20105 PWs)   bands (ev):

   -24.4514 -24.2693 -24.2322 -24.1287 -24.0076 -23.9629 -23.8372 -23.8335
   -23.8230 -23.6764 -10.3316  -9.4290  -5.8161  -2.3890

          k = 0.2917 0.5533 0.0000 ( 20115 PWs)   bands (ev):

   -24.4557 -24.2626 -24.2382 -24.1295 -23.9980 -23.9725 -23.8364 -23.8325
   -23.8240 -23.6719 -10.1257  -9.6531  -5.8828  -2.1918

          k = 0.3333 0.5774 0.0000 ( 20085 PWs)   bands (ev):

   -24.4578 -24.2500 -24.2500 -24.1300 -23.9853 -23.9853 -23.8360 -23.8285
   -23.8285 -23.6697  -9.8913  -9.8913  -5.9203  -1.9678

     highest occupied level (ev):    -1.9678

!    total energy              =    -326.39053353 Ry
     estimated scf accuracy    <       0.00000089 Ry

     The total energy is the sum of the following terms:
     one-electron contribution =    -882.70967874 Ry
     hartree contribution      =     448.40766289 Ry
     xc contribution           =     -95.06682142 Ry
     ewald contribution        =     202.97830373 Ry

     convergence has been achieved in   6 iterations

     Writing output data file ../tmp/stanene.save/

     init_run     :      4.25s CPU      4.43s WALL (       1 calls)
     electrons    :     75.69s CPU     77.85s WALL (       1 calls)

     Called by init_run:
     wfcinit      :      3.81s CPU      3.97s WALL (       1 calls)
     potinit      :      0.12s CPU      0.12s WALL (       1 calls)
     hinit0       :      0.18s CPU      0.18s WALL (       1 calls)

     Called by electrons:
     c_bands      :     66.43s CPU     67.97s WALL (       6 calls)
     sum_band     :      8.32s CPU      8.82s WALL (       6 calls)
     v_of_rho     :      0.35s CPU      0.35s WALL (       7 calls)
     newd         :      0.63s CPU      0.77s WALL (       7 calls)
     mix_rho      :      0.05s CPU      0.05s WALL (       6 calls)

     Called by c_bands:
     init_us_2    :      0.76s CPU      0.77s WALL (     793 calls)
     cegterg      :     63.54s CPU     65.05s WALL (     366 calls)

     Called by *egterg:
     cdiaghg      :      0.75s CPU      0.75s WALL (    1361 calls)
     h_psi        :     43.21s CPU     44.79s WALL (    1422 calls)
     s_psi        :      3.22s CPU      3.25s WALL (    1422 calls)
     g_psi        :      0.31s CPU      0.31s WALL (     995 calls)

     Called by h_psi:
     h_psi:calbec :      5.34s CPU      5.55s WALL (    1422 calls)
     vloc_psi     :     34.43s CPU     35.74s WALL (    1422 calls)
     add_vuspsi   :      3.28s CPU      3.33s WALL (    1422 calls)

     General routines
     calbec       :      6.97s CPU      7.24s WALL (    1788 calls)
     fft          :      0.27s CPU      0.27s WALL (      77 calls)
     ffts         :      0.01s CPU      0.01s WALL (       6 calls)
     fftw         :     36.21s CPU     37.56s WALL (   38766 calls)

     Parallel routines
     fft_scatt_xy :      3.33s CPU      3.49s WALL (   38849 calls)
     fft_scatt_yz :     18.50s CPU     19.06s WALL (   38849 calls)

     PWSCF        :   1m20.13s CPU   1m22.68s WALL


   This run was terminated on:   0:21:55  20Jan2024            

=------------------------------------------------------------------------------=
   JOB DONE.
=------------------------------------------------------------------------------=
