
     Program PWSCF v.6.7MaX starts on 20Jan2024 at  0:17:52 

     This program is part of the open-source Quantum ESPRESSO suite
     for quantum simulation of materials; please cite
         "P. Giannozzi et al., J. Phys.:Condens. Matter 21 395502 (2009);
         "P. Giannozzi et al., J. Phys.:Condens. Matter 29 465901 (2017);
          URL http://www.quantum-espresso.org", 
     in publications or presentations arising from this work. More details at
     http://www.quantum-espresso.org/quote

     Parallel version (MPI), running on     6 processors

     MPI processes distributed on     1 nodes
     R & G space division:  proc/nbgrp/npool/nimage =       6
     Waiting for input...
     Reading input from standard input

     Current dimensions of program PWSCF are:
     Max number of different atomic species (ntypx) = 10
     Max number of k-points (npk) =  40000
     Max angular momentum in pseudopotentials (lmaxx) =  3

     Subspace diagonalization in iterative solution of the eigenvalue problem:
     one sub-group per band group will be used
     scalapack distributed-memory algorithm (size of sub-group:  2*  2 procs)


     Parallelization info
     --------------------
     sticks:   dense  smooth     PW     G-vecs:    dense   smooth      PW
     Min          72      72     20                 5172     5172     856
     Max          73      73     22                 5183     5183     873
     Sum         433     433    127                31055    31055    5165



     bravais-lattice index     =            4
     lattice parameter (alat)  =       8.8439  a.u.
     unit-cell volume          =    2560.0529 (a.u.)^3
     number of atoms/cell      =            2
     number of atomic types    =            1
     number of electrons       =        28.00
     number of Kohn-Sham states=           14
     kinetic-energy cutoff     =      20.0000  Ry
     charge density cutoff     =      80.0000  Ry
     scf convergence threshold =      1.0E-06
     mixing beta               =       0.7000
     number of iterations used =            8  plain     mixing
     Exchange-correlation= SLA  PW   PBE  PBE
                           (   1   4   3   4   0   0   0)

     celldm(1)=   8.843918  celldm(2)=   0.000000  celldm(3)=   4.273504
     celldm(4)=   0.000000  celldm(5)=   0.000000  celldm(6)=   0.000000

     crystal axes: (cart. coord. in units of alat)
               a(1) = (   1.000000   0.000000   0.000000 )  
               a(2) = (  -0.500000   0.866025   0.000000 )  
               a(3) = (   0.000000   0.000000   4.273504 )  

     reciprocal axes: (cart. coord. in units 2 pi/alat)
               b(1) = (  1.000000  0.577350 -0.000000 )  
               b(2) = (  0.000000  1.154701  0.000000 )  
               b(3) = (  0.000000 -0.000000  0.234000 )  


     PseudoPot. # 1 for Sn read from file:
     ../pseudo/Sn_pbe_v1.uspp.F.UPF
     MD5 check sum: 4cf58ce39ec5d5d420df3dd08604eb00
     Pseudo is Ultrasoft + core correction, Zval = 14.0
     Generated by new atomic code, or converted to UPF format
     Using radial grid of  891 points,  6 beta functions with: 
                l(1) =   0
                l(2) =   0
                l(3) =   1
                l(4) =   1
                l(5) =   2
                l(6) =   2
     Q(r) pseudized with  6 coefficients,  rinner =    1.200   1.200   1.200
                                                       1.200   1.200

     atomic species   valence    mass     pseudopotential
        Sn            14.00   118.71000     Sn( 1.00)

     24 Sym. Ops., with inversion, found



   Cartesian axes

     site n.     atom                  positions (alat units)
         1           Sn  tau(   1) = (   0.0000000   0.5773503   2.1367521  )
         2           Sn  tau(   2) = (   0.5000000   0.2886751   2.1367521  )

     number of k points=    61
                       cart. coord. in units 2pi/alat
        k(    1) = (   0.0000000   0.0000000   0.0000000), wk =   0.0034722
        k(    2) = (   0.0000000   0.0481125   0.0000000), wk =   0.0208333
        k(    3) = (   0.0000000   0.0962250   0.0000000), wk =   0.0208333
        k(    4) = (   0.0000000   0.1443376   0.0000000), wk =   0.0208333
        k(    5) = (   0.0000000   0.1924501   0.0000000), wk =   0.0208333
        k(    6) = (   0.0000000   0.2405626   0.0000000), wk =   0.0208333
        k(    7) = (   0.0000000   0.2886751   0.0000000), wk =   0.0208333
        k(    8) = (   0.0000000   0.3367877   0.0000000), wk =   0.0208333
        k(    9) = (   0.0000000   0.3849002   0.0000000), wk =   0.0208333
        k(   10) = (   0.0000000   0.4330127   0.0000000), wk =   0.0208333
        k(   11) = (   0.0000000   0.4811252   0.0000000), wk =   0.0208333
        k(   12) = (   0.0000000   0.5292377   0.0000000), wk =   0.0208333
        k(   13) = (   0.0000000  -0.5773503   0.0000000), wk =   0.0104167
        k(   14) = (   0.0416667   0.0721688   0.0000000), wk =   0.0208333
        k(   15) = (   0.0416667   0.1202813   0.0000000), wk =   0.0416667
        k(   16) = (   0.0416667   0.1683938   0.0000000), wk =   0.0416667
        k(   17) = (   0.0416667   0.2165064   0.0000000), wk =   0.0416667
        k(   18) = (   0.0416667   0.2646189   0.0000000), wk =   0.0416667
        k(   19) = (   0.0416667   0.3127314   0.0000000), wk =   0.0416667
        k(   20) = (   0.0416667   0.3608439   0.0000000), wk =   0.0416667
        k(   21) = (   0.0416667   0.4089564   0.0000000), wk =   0.0416667
        k(   22) = (   0.0416667   0.4570690   0.0000000), wk =   0.0416667
        k(   23) = (   0.0416667   0.5051815   0.0000000), wk =   0.0416667
        k(   24) = (   0.0416667   0.5532940   0.0000000), wk =   0.0416667
        k(   25) = (   0.0833333   0.1443376   0.0000000), wk =   0.0208333
        k(   26) = (   0.0833333   0.1924501   0.0000000), wk =   0.0416667
        k(   27) = (   0.0833333   0.2405626   0.0000000), wk =   0.0416667
        k(   28) = (   0.0833333   0.2886751   0.0000000), wk =   0.0416667
        k(   29) = (   0.0833333   0.3367877   0.0000000), wk =   0.0416667
        k(   30) = (   0.0833333   0.3849002   0.0000000), wk =   0.0416667
        k(   31) = (   0.0833333   0.4330127   0.0000000), wk =   0.0416667
        k(   32) = (   0.0833333   0.4811252   0.0000000), wk =   0.0416667
        k(   33) = (   0.0833333   0.5292377   0.0000000), wk =   0.0416667
        k(   34) = (   0.0833333   0.5773503   0.0000000), wk =   0.0208333
        k(   35) = (   0.1250000   0.2165064   0.0000000), wk =   0.0208333
        k(   36) = (   0.1250000   0.2646189   0.0000000), wk =   0.0416667
        k(   37) = (   0.1250000   0.3127314   0.0000000), wk =   0.0416667
        k(   38) = (   0.1250000   0.3608439   0.0000000), wk =   0.0416667
        k(   39) = (   0.1250000   0.4089564   0.0000000), wk =   0.0416667
        k(   40) = (   0.1250000   0.4570690   0.0000000), wk =   0.0416667
        k(   41) = (   0.1250000   0.5051815   0.0000000), wk =   0.0416667
        k(   42) = (   0.1250000   0.5532940   0.0000000), wk =   0.0416667
        k(   43) = (   0.1666667   0.2886751   0.0000000), wk =   0.0208333
        k(   44) = (   0.1666667   0.3367877   0.0000000), wk =   0.0416667
        k(   45) = (   0.1666667   0.3849002   0.0000000), wk =   0.0416667
        k(   46) = (   0.1666667   0.4330127   0.0000000), wk =   0.0416667
        k(   47) = (   0.1666667   0.4811252   0.0000000), wk =   0.0416667
        k(   48) = (   0.1666667   0.5292377   0.0000000), wk =   0.0416667
        k(   49) = (   0.1666667   0.5773503   0.0000000), wk =   0.0208333
        k(   50) = (   0.2083333   0.3608439   0.0000000), wk =   0.0208333
        k(   51) = (   0.2083333   0.4089564   0.0000000), wk =   0.0416667
        k(   52) = (   0.2083333   0.4570690   0.0000000), wk =   0.0416667
        k(   53) = (   0.2083333   0.5051815   0.0000000), wk =   0.0416667
        k(   54) = (   0.2083333   0.5532940   0.0000000), wk =   0.0416667
        k(   55) = (   0.2500000   0.4330127   0.0000000), wk =   0.0208333
        k(   56) = (   0.2500000   0.4811252   0.0000000), wk =   0.0416667
        k(   57) = (   0.2500000   0.5292377   0.0000000), wk =   0.0416667
        k(   58) = (   0.2500000   0.5773503   0.0000000), wk =   0.0208333
        k(   59) = (   0.2916667   0.5051815   0.0000000), wk =   0.0208333
        k(   60) = (   0.2916667   0.5532940   0.0000000), wk =   0.0416667
        k(   61) = (   0.3333333   0.5773503   0.0000000), wk =   0.0069444

     Dense  grid:    31055 G-vectors     FFT dimensions: (  25,  25, 108)

     Estimated max dynamical RAM per process >      27.36 MB

     Estimated total dynamical RAM >     164.17 MB

     Check: negative core charge=   -0.000022

     Initial potential from superposition of free atoms

     starting charge   25.99991, renormalised to   28.00000

     negative rho (up, down):  1.132E-01 0.000E+00
     Starting wfcs are   18 randomized atomic wfcs

     total cpu time spent up to now is        0.9 secs

     Self-consistent Calculation

     iteration #  1     ecut=    20.00 Ry     beta= 0.70
     Davidson diagonalization with overlap
     ethr =  1.00E-02,  avg # of iterations =  2.0

     negative rho (up, down):  7.552E-02 0.000E+00

     total cpu time spent up to now is        3.1 secs

     total energy              =    -325.31278542 Ry
     estimated scf accuracy    <       2.55432020 Ry

     iteration #  2     ecut=    20.00 Ry     beta= 0.70
     Davidson diagonalization with overlap
     ethr =  9.12E-03,  avg # of iterations =  2.0

     negative rho (up, down):  8.226E-02 0.000E+00

     total cpu time spent up to now is        5.4 secs

     total energy              =    -326.22956752 Ry
     estimated scf accuracy    <       0.31390517 Ry

     iteration #  3     ecut=    20.00 Ry     beta= 0.70
     Davidson diagonalization with overlap
     ethr =  1.12E-03,  avg # of iterations =  2.1

     negative rho (up, down):  8.517E-02 0.000E+00

     total cpu time spent up to now is        7.8 secs

     total energy              =    -326.27526488 Ry
     estimated scf accuracy    <       0.00572605 Ry

     iteration #  4     ecut=    20.00 Ry     beta= 0.70
     Davidson diagonalization with overlap
     ethr =  2.05E-05,  avg # of iterations =  3.3

     negative rho (up, down):  8.425E-02 0.000E+00

     total cpu time spent up to now is       10.7 secs

     total energy              =    -326.27769685 Ry
     estimated scf accuracy    <       0.00079069 Ry

     iteration #  5     ecut=    20.00 Ry     beta= 0.70
     Davidson diagonalization with overlap
     ethr =  2.82E-06,  avg # of iterations =  2.2

     negative rho (up, down):  8.398E-02 0.000E+00

     total cpu time spent up to now is       13.6 secs

     total energy              =    -326.27785276 Ry
     estimated scf accuracy    <       0.00000300 Ry

     iteration #  6     ecut=    20.00 Ry     beta= 0.70
     Davidson diagonalization with overlap
     ethr =  1.07E-08,  avg # of iterations =  5.8

     negative rho (up, down):  8.398E-02 0.000E+00

     total cpu time spent up to now is       16.7 secs

     total energy              =    -326.27794945 Ry
     estimated scf accuracy    <       0.00000153 Ry

     iteration #  7     ecut=    20.00 Ry     beta= 0.70
     Davidson diagonalization with overlap
     ethr =  5.48E-09,  avg # of iterations =  1.0

     negative rho (up, down):  8.401E-02 0.000E+00

     total cpu time spent up to now is       18.8 secs

     End of self-consistent calculation

          k = 0.0000 0.0000 0.0000 (  3905 PWs)   bands (ev):

   -24.4870 -24.4870 -24.4618 -24.3773 -24.3773 -24.1970 -24.1970 -24.1443
   -24.1443 -24.0456 -12.3781  -4.4170  -3.8563  -3.5008

          k = 0.0000 0.0481 0.0000 (  3885 PWs)   bands (ev):

   -24.4898 -24.4879 -24.4603 -24.3745 -24.3679 -24.1911 -24.1892 -24.1424
   -24.1411 -24.0401 -12.3630  -4.4013  -4.2924  -3.5339

          k = 0.0000 0.0962 0.0000 (  3881 PWs)   bands (ev):

   -24.5008 -24.4990 -24.4627 -24.3749 -24.3620 -24.1755 -24.1738 -24.1460
   -24.1428 -24.0375 -12.3187  -4.8689  -4.3553  -3.6273

          k = 0.0000 0.1443 0.0000 (  3877 PWs)   bands (ev):

   -24.5191 -24.5165 -24.4626 -24.3723 -24.3590 -24.1565 -24.1509 -24.1506
   -24.1401 -24.0356 -12.2448  -5.4495  -4.2789  -3.7631

          k = 0.0000 0.1925 0.0000 (  3871 PWs)   bands (ev):

   -24.5380 -24.5360 -24.4620 -24.3715 -24.3595 -24.1553 -24.1397 -24.1388
   -24.1196 -24.0299 -12.1418  -6.0201  -4.1728  -3.9239

          k = 0.0000 0.2406 0.0000 (  3867 PWs)   bands (ev):

   -24.5581 -24.5531 -24.4623 -24.3726 -24.3544 -24.1605 -24.1368 -24.1213
   -24.0946 -24.0289 -12.0104  -6.5732  -4.0933  -4.0382

          k = 0.0000 0.2887 0.0000 (  3873 PWs)   bands (ev):

   -24.5760 -24.5742 -24.4597 -24.3763 -24.3477 -24.1691 -24.1303 -24.1109
   -24.0807 -24.0293 -11.8522  -7.1032  -4.2585  -3.8768

          k = 0.0000 0.3368 0.0000 (  3859 PWs)   bands (ev):

   -24.5895 -24.5893 -24.4562 -24.3784 -24.3367 -24.1757 -24.1253 -24.0989
   -24.0608 -24.0235 -11.6685  -7.6050  -4.4087  -3.6911

          k = 0.0000 0.3849 0.0000 (  3855 PWs)   bands (ev):

   -24.6107 -24.6007 -24.4490 -24.3850 -24.3318 -24.1792 -24.1262 -24.0885
   -24.0435 -24.0154 -11.4643  -8.0728  -4.5377  -3.4860

          k = 0.0000 0.4330 0.0000 (  3879 PWs)   bands (ev):

   -24.6264 -24.6207 -24.4492 -24.3855 -24.3325 -24.1924 -24.1252 -24.0916
   -24.0365 -24.0089 -11.2479  -8.4974  -4.6437  -3.2704

          k = 0.0000 0.4811 0.0000 (  3883 PWs)   bands (ev):

   -24.6369 -24.6295 -24.4526 -24.3890 -24.3269 -24.1976 -24.1279 -24.0913
   -24.0257 -23.9989 -11.0350  -8.8585  -4.7207  -3.0609

          k = 0.0000 0.5292 0.0000 (  3868 PWs)   bands (ev):

   -24.6418 -24.6333 -24.4507 -24.3892 -24.3173 -24.1987 -24.1236 -24.0885
   -24.0217 -23.9891 -10.8617  -9.1213  -4.7672  -2.8911

          k = 0.0000-0.5774 0.0000 (  3876 PWs)   bands (ev):

   -24.6466 -24.6369 -24.4501 -24.3903 -24.3153 -24.2059 -24.1261 -24.0920
   -24.0183 -23.9860 -10.7904  -9.2224  -4.7832  -2.8219

          k = 0.0417 0.0722 0.0000 (  3869 PWs)   bands (ev):

   -24.4976 -24.4927 -24.4611 -24.3695 -24.3608 -24.1758 -24.1741 -24.1469
   -24.1396 -24.0381 -12.3334  -4.7121  -4.3706  -3.6001

          k = 0.0417 0.1203 0.0000 (  3867 PWs)   bands (ev):

   -24.5145 -24.5045 -24.4625 -24.3690 -24.3587 -24.1597 -24.1580 -24.1489
   -24.1405 -24.0342 -12.2743  -5.2407  -4.3094  -3.7239

          k = 0.0417 0.1684 0.0000 (  3876 PWs)   bands (ev):

   -24.5361 -24.5205 -24.4616 -24.3738 -24.3599 -24.1535 -24.1457 -24.1399
   -24.1360 -24.0322 -12.1859  -5.7915  -4.2181  -3.8833

          k = 0.0417 0.2165 0.0000 (  3871 PWs)   bands (ev):

   -24.5560 -24.5382 -24.4618 -24.3749 -24.3560 -24.1578 -24.1365 -24.1287
   -24.1100 -24.0299 -12.0687  -6.3387  -4.0978  -4.0576

          k = 0.0417 0.2646 0.0000 (  3867 PWs)   bands (ev):

   -24.5771 -24.5543 -24.4592 -24.3794 -24.3515 -24.1638 -24.1316 -24.1136
   -24.0847 -24.0290 -11.9236  -6.8697  -4.2321  -3.9494

          k = 0.0417 0.3127 0.0000 (  3866 PWs)   bands (ev):

   -24.5951 -24.5716 -24.4565 -24.3794 -24.3409 -24.1737 -24.1294 -24.1016
   -24.0704 -24.0257 -11.7524  -7.3791  -4.3966  -3.7758

          k = 0.0417 0.3608 0.0000 (  3862 PWs)   bands (ev):

   -24.6128 -24.5830 -24.4529 -24.3828 -24.3337 -24.1786 -24.1275 -24.0944
   -24.0565 -24.0176 -11.5578  -7.8592  -4.5420  -3.5798

          k = 0.0417 0.4090 0.0000 (  3870 PWs)   bands (ev):

   -24.6325 -24.5994 -24.4517 -24.3849 -24.3283 -24.1870 -24.1266 -24.0923
   -24.0437 -24.0076 -11.3460  -8.3030  -4.6633  -3.3679

          k = 0.0417 0.4571 0.0000 (  3882 PWs)   bands (ev):

   -24.6457 -24.6120 -24.4541 -24.3882 -24.3283 -24.1967 -24.1256 -24.0915
   -24.0347 -23.9982 -11.1282  -8.6970  -4.7569  -3.1522

          k = 0.0417 0.5052 0.0000 (  3876 PWs)   bands (ev):

   -24.6529 -24.6172 -24.4555 -24.3900 -24.3229 -24.1995 -24.1251 -24.0869
   -24.0279 -23.9885 -10.9281  -9.0141  -4.8200  -2.9558

          k = 0.0417 0.5533 0.0000 (  3874 PWs)   bands (ev):

   -24.6587 -24.6207 -24.4536 -24.3907 -24.3146 -24.2052 -24.1244 -24.0878
   -24.0256 -23.9834 -10.7967  -9.2046  -4.8523  -2.8276

          k = 0.0833 0.1443 0.0000 (  3887 PWs)   bands (ev):

   -24.5364 -24.5150 -24.4639 -24.3742 -24.3601 -24.1553 -24.1490 -24.1455
   -24.1417 -24.0363 -12.2007  -5.7059  -4.2336  -3.8834

          k = 0.0833 0.1925 0.0000 (  3873 PWs)   bands (ev):

   -24.5570 -24.5269 -24.4618 -24.3744 -24.3552 -24.1562 -24.1375 -24.1321
   -24.1206 -24.0307 -12.0977  -6.2038  -4.1276  -4.0732

          k = 0.0833 0.2406 0.0000 (  3876 PWs)   bands (ev):

   -24.5784 -24.5399 -24.4622 -24.3788 -24.3521 -24.1608 -24.1356 -24.1185
   -24.1020 -24.0292 -11.9667  -6.7073  -4.2702  -3.9934

          k = 0.0833 0.2887 0.0000 (  3878 PWs)   bands (ev):

   -24.5993 -24.5559 -24.4611 -24.3810 -24.3468 -24.1725 -24.1340 -24.1070
   -24.0781 -24.0276 -11.8086  -7.2021  -4.4584  -3.8328

          k = 0.0833 0.3368 0.0000 (  3863 PWs)   bands (ev):

   -24.6193 -24.5678 -24.4572 -24.3809 -24.3339 -24.1771 -24.1311 -24.0945
   -24.0636 -24.0157 -11.6254  -7.6783  -4.6282  -3.6476

          k = 0.0833 0.3849 0.0000 (  3870 PWs)   bands (ev):

   -24.6391 -24.5762 -24.4567 -24.3851 -24.3284 -24.1877 -24.1265 -24.0941
   -24.0565 -24.0040 -11.4213  -8.1283  -4.7741  -3.4429

          k = 0.0833 0.4330 0.0000 (  3870 PWs)   bands (ev):

   -24.6539 -24.5875 -24.4560 -24.3854 -24.3263 -24.1972 -24.1211 -24.0901
   -24.0463 -23.9913 -11.2037  -8.5398  -4.8898  -3.2264

          k = 0.0833 0.4811 0.0000 (  3865 PWs)   bands (ev):

   -24.6639 -24.5962 -24.4547 -24.3873 -24.3198 -24.2005 -24.1219 -24.0835
   -24.0395 -23.9817 -10.9888  -8.8947  -4.9739  -3.0145

          k = 0.0833 0.5292 0.0000 (  3866 PWs)   bands (ev):

   -24.6716 -24.6003 -24.4547 -24.3906 -24.3147 -24.2055 -24.1218 -24.0852
   -24.0354 -23.9725 -10.8129  -9.1554  -5.0258  -2.8426

          k = 0.0833 0.5774 0.0000 (  3860 PWs)   bands (ev):

   -24.6734 -24.6025 -24.4543 -24.3905 -24.3086 -24.2073 -24.1237 -24.0836
   -24.0304 -23.9688 -10.7395  -9.2565  -5.0426  -2.7714

          k = 0.1250 0.2165 0.0000 (  3881 PWs)   bands (ev):

   -24.5789 -24.5357 -24.4645 -24.3766 -24.3527 -24.1639 -24.1358 -24.1198
   -24.1059 -24.0315 -11.9813  -6.6472  -4.2939  -4.0083

          k = 0.1250 0.2646 0.0000 (  3876 PWs)   bands (ev):

   -24.6008 -24.5466 -24.4642 -24.3795 -24.3473 -24.1715 -24.1333 -24.1021
   -24.0910 -24.0228 -11.8368  -7.1021  -4.5158  -3.8614

          k = 0.1250 0.3127 0.0000 (  3866 PWs)   bands (ev):

   -24.6222 -24.5542 -24.4626 -24.3827 -24.3368 -24.1772 -24.1286 -24.0923
   -24.0767 -24.0127 -11.6661  -7.5531  -4.7210  -3.6884

          k = 0.1250 0.3608 0.0000 (  3869 PWs)   bands (ev):

   -24.6443 -24.5620 -24.4616 -24.3860 -24.3301 -24.1873 -24.1280 -24.0890
   -24.0640 -24.0012 -11.4722  -7.9911  -4.9002  -3.4935

          k = 0.1250 0.4090 0.0000 (  3873 PWs)   bands (ev):

   -24.6625 -24.5691 -24.4620 -24.3894 -24.3237 -24.1994 -24.1265 -24.0860
   -24.0575 -23.9857 -11.2597  -8.4044  -5.0479  -3.2819

          k = 0.1250 0.4571 0.0000 (  3871 PWs)   bands (ev):

   -24.6741 -24.5762 -24.4608 -24.3928 -24.3185 -24.2032 -24.1221 -24.0849
   -24.0524 -23.9743 -11.0391  -8.7786  -5.1608  -3.0635

          k = 0.1250 0.5052 0.0000 (  3861 PWs)   bands (ev):

   -24.6832 -24.5808 -24.4595 -24.3932 -24.3079 -24.2095 -24.1207 -24.0828
   -24.0442 -23.9623 -10.8341  -9.0871  -5.2361  -2.8623

          k = 0.1250 0.5533 0.0000 (  3868 PWs)   bands (ev):

   -24.6886 -24.5850 -24.4592 -24.3922 -24.3061 -24.2146 -24.1231 -24.0865
   -24.0422 -23.9592 -10.6963  -9.2775  -5.2747  -2.7283

          k = 0.1667 0.2887 0.0000 (  3876 PWs)   bands (ev):

   -24.6256 -24.5521 -24.4632 -24.3839 -24.3385 -24.1783 -24.1308 -24.0940
   -24.0810 -24.0144 -11.6798  -7.5085  -4.7601  -3.7022

          k = 0.1667 0.3368 0.0000 (  3874 PWs)   bands (ev):

   -24.6466 -24.5552 -24.4648 -24.3881 -24.3310 -24.1861 -24.1275 -24.0858
   -24.0756 -24.0003 -11.4977  -7.9145  -4.9815  -3.5188

          k = 0.1667 0.3849 0.0000 (  3869 PWs)   bands (ev):

   -24.6653 -24.5573 -24.4663 -24.3910 -24.3224 -24.1971 -24.1241 -24.0838
   -24.0661 -23.9823 -11.2939  -8.3099  -5.1693  -3.3154

          k = 0.1667 0.4330 0.0000 (  3866 PWs)   bands (ev):

   -24.6814 -24.5602 -24.4661 -24.3917 -24.3155 -24.2056 -24.1229 -24.0835
   -24.0595 -23.9661 -11.0746  -8.6839  -5.3187  -3.0980

          k = 0.1667 0.4811 0.0000 (  3871 PWs)   bands (ev):

   -24.6936 -24.5641 -24.4650 -24.3967 -24.3083 -24.2140 -24.1203 -24.0843
   -24.0576 -23.9571 -10.8545  -9.0175  -5.4274  -2.8813

          k = 0.1667 0.5292 0.0000 (  3856 PWs)   bands (ev):

   -24.6989 -24.5646 -24.4639 -24.3961 -24.2981 -24.2190 -24.1164 -24.0845
   -24.0506 -23.9458 -10.6676  -9.2728  -5.4921  -2.6989

          k = 0.1667 0.5774 0.0000 (  3864 PWs)   bands (ev):

   -24.7025 -24.5687 -24.4636 -24.3969 -24.2984 -24.2220 -24.1197 -24.0825
   -24.0501 -23.9461 -10.5873  -9.3766  -5.5136  -2.6211

          k = 0.2083 0.3608 0.0000 (  3866 PWs)   bands (ev):

   -24.6670 -24.5549 -24.4671 -24.3902 -24.3215 -24.1963 -24.1193 -24.0776
   -24.0746 -23.9814 -11.3054  -8.2761  -5.2148  -3.3264

          k = 0.2083 0.4090 0.0000 (  3871 PWs)   bands (ev):

   -24.6860 -24.5530 -24.4697 -24.3939 -24.3133 -24.2087 -24.1218 -24.0793
   -24.0688 -23.9650 -11.0931  -8.6301  -5.4091  -3.1156

          k = 0.2083 0.4571 0.0000 (  3854 PWs)   bands (ev):

   -24.6980 -24.5481 -24.4698 -24.3945 -24.3040 -24.2147 -24.1187 -24.0759
   -24.0630 -23.9470 -10.8683  -8.9643  -5.5574  -2.8943

          k = 0.2083 0.5052 0.0000 (  3854 PWs)   bands (ev):

   -24.7081 -24.5485 -24.4719 -24.3987 -24.2964 -24.2226 -24.1167 -24.0777
   -24.0577 -23.9376 -10.6520  -9.2562  -5.6579  -2.6827

          k = 0.2083 0.5533 0.0000 (  3852 PWs)   bands (ev):

   -24.7118 -24.5480 -24.4728 -24.3980 -24.2903 -24.2271 -24.1154 -24.0807
   -24.0557 -23.9332 -10.4962  -9.4502  -5.7083  -2.5315

          k = 0.2500 0.4330 0.0000 (  3866 PWs)   bands (ev):

   -24.7009 -24.5455 -24.4714 -24.3978 -24.3054 -24.2193 -24.1205 -24.0725
   -24.0725 -23.9471 -10.8737  -8.9449  -5.6043  -2.8994

          k = 0.2500 0.4811 0.0000 (  3844 PWs)   bands (ev):

   -24.7107 -24.5375 -24.4729 -24.3981 -24.2908 -24.2257 -24.1147 -24.0717
   -24.0648 -23.9326 -10.6454  -9.2428  -5.7474  -2.6756

          k = 0.2500 0.5292 0.0000 (  3835 PWs)   bands (ev):

   -24.7167 -24.5323 -24.4767 -24.3977 -24.2842 -24.2324 -24.1144 -24.0724
   -24.0588 -23.9217 -10.4352  -9.4954  -5.8340  -2.4716

          k = 0.2500 0.5774 0.0000 (  3838 PWs)   bands (ev):

   -24.7182 -24.5309 -24.4799 -24.3978 -24.2778 -24.2371 -24.1121 -24.0762
   -24.0600 -23.9216 -10.3318  -9.6136  -5.8635  -2.3717

          k = 0.2917 0.5052 0.0000 (  3826 PWs)   bands (ev):

   -24.7173 -24.5233 -24.4775 -24.3974 -24.2821 -24.2341 -24.1148 -24.0672
   -24.0623 -23.9176 -10.4131  -9.5110  -5.8777  -2.4501

          k = 0.2917 0.5533 0.0000 (  3824 PWs)   bands (ev):

   -24.7232 -24.5152 -24.4855 -24.3991 -24.2716 -24.2460 -24.1139 -24.0659
   -24.0614 -23.9121 -10.2076  -9.7351  -5.9443  -2.2519

          k = 0.3333 0.5774 0.0000 (  3846 PWs)   bands (ev):

   -24.7299 -24.5023 -24.5023 -24.4054 -24.2638 -24.2638 -24.1177 -24.0666
   -24.0666 -23.9128  -9.9737  -9.9737  -5.9825  -2.0282

     highest occupied level (ev):    -2.0282

!    total energy              =    -326.27794867 Ry
     estimated scf accuracy    <       0.00000092 Ry

     The total energy is the sum of the following terms:
     one-electron contribution =    -882.18052967 Ry
     hartree contribution      =     447.88464252 Ry
     xc contribution           =     -94.96036529 Ry
     ewald contribution        =     202.97830376 Ry

     convergence has been achieved in   7 iterations

     Writing output data file ../tmp/stanene.save/

     init_run     :      0.78s CPU      0.84s WALL (       1 calls)
     electrons    :     16.85s CPU     17.87s WALL (       1 calls)

     Called by init_run:
     wfcinit      :      0.66s CPU      0.71s WALL (       1 calls)
     potinit      :      0.02s CPU      0.02s WALL (       1 calls)
     hinit0       :      0.05s CPU      0.07s WALL (       1 calls)

     Called by electrons:
     c_bands      :     14.90s CPU     15.74s WALL (       7 calls)
     sum_band     :      1.77s CPU      1.95s WALL (       7 calls)
     v_of_rho     :      0.06s CPU      0.06s WALL (       8 calls)
     newd         :      0.14s CPU      0.14s WALL (       8 calls)
     mix_rho      :      0.01s CPU      0.01s WALL (       7 calls)

     Called by c_bands:
     init_us_2    :      0.16s CPU      0.17s WALL (     915 calls)
     cegterg      :     14.22s CPU     15.04s WALL (     427 calls)

     Called by *egterg:
     cdiaghg      :      0.73s CPU      0.76s WALL (    1550 calls)
     h_psi        :      9.26s CPU      9.90s WALL (    1611 calls)
     s_psi        :      0.71s CPU      0.75s WALL (    1611 calls)
     g_psi        :      0.07s CPU      0.07s WALL (    1123 calls)

     Called by h_psi:
     h_psi:calbec :      1.10s CPU      1.15s WALL (    1611 calls)
     vloc_psi     :      7.40s CPU      7.94s WALL (    1611 calls)
     add_vuspsi   :      0.73s CPU      0.78s WALL (    1611 calls)

     General routines
     calbec       :      1.44s CPU      1.52s WALL (    2038 calls)
     fft          :      0.05s CPU      0.05s WALL (      88 calls)
     ffts         :      0.00s CPU      0.00s WALL (       7 calls)
     fftw         :      7.96s CPU      8.55s WALL (   43648 calls)

     Parallel routines
     fft_scatt_xy :      0.53s CPU      0.61s WALL (   43743 calls)
     fft_scatt_yz :      5.20s CPU      5.51s WALL (   43743 calls)

     PWSCF        :     17.74s CPU     18.98s WALL


   This run was terminated on:   0:18:11  20Jan2024            

=------------------------------------------------------------------------------=
   JOB DONE.
=------------------------------------------------------------------------------=
