
     Program PWSCF v.6.7MaX starts on 20Jan2024 at  0:23:42 

     This program is part of the open-source Quantum ESPRESSO suite
     for quantum simulation of materials; please cite
         "P. Giannozzi et al., J. Phys.:Condens. Matter 21 395502 (2009);
         "P. Giannozzi et al., J. Phys.:Condens. Matter 29 465901 (2017);
          URL http://www.quantum-espresso.org", 
     in publications or presentations arising from this work. More details at
     http://www.quantum-espresso.org/quote

     Parallel version (MPI), running on     6 processors

     MPI processes distributed on     1 nodes
     R & G space division:  proc/nbgrp/npool/nimage =       6
     Waiting for input...
     Reading input from standard input

     Current dimensions of program PWSCF are:
     Max number of different atomic species (ntypx) = 10
     Max number of k-points (npk) =  40000
     Max angular momentum in pseudopotentials (lmaxx) =  3

     Subspace diagonalization in iterative solution of the eigenvalue problem:
     one sub-group per band group will be used
     scalapack distributed-memory algorithm (size of sub-group:  2*  2 procs)


     Parallelization info
     --------------------
     sticks:   dense  smooth     PW     G-vecs:    dense   smooth      PW
     Min         288     288     79                41283    41283    6003
     Max         290     290     80                41286    41286    6016
     Sum        1735    1735    475               247709   247709   36035



     bravais-lattice index     =            4
     lattice parameter (alat)  =       8.8439  a.u.
     unit-cell volume          =    2560.0529 (a.u.)^3
     number of atoms/cell      =            2
     number of atomic types    =            1
     number of electrons       =        28.00
     number of Kohn-Sham states=           14
     kinetic-energy cutoff     =      80.0000  Ry
     charge density cutoff     =     320.0000  Ry
     scf convergence threshold =      1.0E-06
     mixing beta               =       0.7000
     number of iterations used =            8  plain     mixing
     Exchange-correlation= SLA  PW   PBE  PBE
                           (   1   4   3   4   0   0   0)

     celldm(1)=   8.843918  celldm(2)=   0.000000  celldm(3)=   4.273504
     celldm(4)=   0.000000  celldm(5)=   0.000000  celldm(6)=   0.000000

     crystal axes: (cart. coord. in units of alat)
               a(1) = (   1.000000   0.000000   0.000000 )  
               a(2) = (  -0.500000   0.866025   0.000000 )  
               a(3) = (   0.000000   0.000000   4.273504 )  

     reciprocal axes: (cart. coord. in units 2 pi/alat)
               b(1) = (  1.000000  0.577350 -0.000000 )  
               b(2) = (  0.000000  1.154701  0.000000 )  
               b(3) = (  0.000000 -0.000000  0.234000 )  


     PseudoPot. # 1 for Sn read from file:
     ../pseudo/Sn_pbe_v1.uspp.F.UPF
     MD5 check sum: 4cf58ce39ec5d5d420df3dd08604eb00
     Pseudo is Ultrasoft + core correction, Zval = 14.0
     Generated by new atomic code, or converted to UPF format
     Using radial grid of  891 points,  6 beta functions with: 
                l(1) =   0
                l(2) =   0
                l(3) =   1
                l(4) =   1
                l(5) =   2
                l(6) =   2
     Q(r) pseudized with  6 coefficients,  rinner =    1.200   1.200   1.200
                                                       1.200   1.200

     atomic species   valence    mass     pseudopotential
        Sn            14.00   118.71000     Sn( 1.00)

     24 Sym. Ops., with inversion, found



   Cartesian axes

     site n.     atom                  positions (alat units)
         1           Sn  tau(   1) = (   0.0000000   0.5773503   2.1367521  )
         2           Sn  tau(   2) = (   0.5000000   0.2886751   2.1367521  )

     number of k points=    61
                       cart. coord. in units 2pi/alat
        k(    1) = (   0.0000000   0.0000000   0.0000000), wk =   0.0034722
        k(    2) = (   0.0000000   0.0481125   0.0000000), wk =   0.0208333
        k(    3) = (   0.0000000   0.0962250   0.0000000), wk =   0.0208333
        k(    4) = (   0.0000000   0.1443376   0.0000000), wk =   0.0208333
        k(    5) = (   0.0000000   0.1924501   0.0000000), wk =   0.0208333
        k(    6) = (   0.0000000   0.2405626   0.0000000), wk =   0.0208333
        k(    7) = (   0.0000000   0.2886751   0.0000000), wk =   0.0208333
        k(    8) = (   0.0000000   0.3367877   0.0000000), wk =   0.0208333
        k(    9) = (   0.0000000   0.3849002   0.0000000), wk =   0.0208333
        k(   10) = (   0.0000000   0.4330127   0.0000000), wk =   0.0208333
        k(   11) = (   0.0000000   0.4811252   0.0000000), wk =   0.0208333
        k(   12) = (   0.0000000   0.5292377   0.0000000), wk =   0.0208333
        k(   13) = (   0.0000000  -0.5773503   0.0000000), wk =   0.0104167
        k(   14) = (   0.0416667   0.0721688   0.0000000), wk =   0.0208333
        k(   15) = (   0.0416667   0.1202813   0.0000000), wk =   0.0416667
        k(   16) = (   0.0416667   0.1683938   0.0000000), wk =   0.0416667
        k(   17) = (   0.0416667   0.2165064   0.0000000), wk =   0.0416667
        k(   18) = (   0.0416667   0.2646189   0.0000000), wk =   0.0416667
        k(   19) = (   0.0416667   0.3127314   0.0000000), wk =   0.0416667
        k(   20) = (   0.0416667   0.3608439   0.0000000), wk =   0.0416667
        k(   21) = (   0.0416667   0.4089564   0.0000000), wk =   0.0416667
        k(   22) = (   0.0416667   0.4570690   0.0000000), wk =   0.0416667
        k(   23) = (   0.0416667   0.5051815   0.0000000), wk =   0.0416667
        k(   24) = (   0.0416667   0.5532940   0.0000000), wk =   0.0416667
        k(   25) = (   0.0833333   0.1443376   0.0000000), wk =   0.0208333
        k(   26) = (   0.0833333   0.1924501   0.0000000), wk =   0.0416667
        k(   27) = (   0.0833333   0.2405626   0.0000000), wk =   0.0416667
        k(   28) = (   0.0833333   0.2886751   0.0000000), wk =   0.0416667
        k(   29) = (   0.0833333   0.3367877   0.0000000), wk =   0.0416667
        k(   30) = (   0.0833333   0.3849002   0.0000000), wk =   0.0416667
        k(   31) = (   0.0833333   0.4330127   0.0000000), wk =   0.0416667
        k(   32) = (   0.0833333   0.4811252   0.0000000), wk =   0.0416667
        k(   33) = (   0.0833333   0.5292377   0.0000000), wk =   0.0416667
        k(   34) = (   0.0833333   0.5773503   0.0000000), wk =   0.0208333
        k(   35) = (   0.1250000   0.2165064   0.0000000), wk =   0.0208333
        k(   36) = (   0.1250000   0.2646189   0.0000000), wk =   0.0416667
        k(   37) = (   0.1250000   0.3127314   0.0000000), wk =   0.0416667
        k(   38) = (   0.1250000   0.3608439   0.0000000), wk =   0.0416667
        k(   39) = (   0.1250000   0.4089564   0.0000000), wk =   0.0416667
        k(   40) = (   0.1250000   0.4570690   0.0000000), wk =   0.0416667
        k(   41) = (   0.1250000   0.5051815   0.0000000), wk =   0.0416667
        k(   42) = (   0.1250000   0.5532940   0.0000000), wk =   0.0416667
        k(   43) = (   0.1666667   0.2886751   0.0000000), wk =   0.0208333
        k(   44) = (   0.1666667   0.3367877   0.0000000), wk =   0.0416667
        k(   45) = (   0.1666667   0.3849002   0.0000000), wk =   0.0416667
        k(   46) = (   0.1666667   0.4330127   0.0000000), wk =   0.0416667
        k(   47) = (   0.1666667   0.4811252   0.0000000), wk =   0.0416667
        k(   48) = (   0.1666667   0.5292377   0.0000000), wk =   0.0416667
        k(   49) = (   0.1666667   0.5773503   0.0000000), wk =   0.0208333
        k(   50) = (   0.2083333   0.3608439   0.0000000), wk =   0.0208333
        k(   51) = (   0.2083333   0.4089564   0.0000000), wk =   0.0416667
        k(   52) = (   0.2083333   0.4570690   0.0000000), wk =   0.0416667
        k(   53) = (   0.2083333   0.5051815   0.0000000), wk =   0.0416667
        k(   54) = (   0.2083333   0.5532940   0.0000000), wk =   0.0416667
        k(   55) = (   0.2500000   0.4330127   0.0000000), wk =   0.0208333
        k(   56) = (   0.2500000   0.4811252   0.0000000), wk =   0.0416667
        k(   57) = (   0.2500000   0.5292377   0.0000000), wk =   0.0416667
        k(   58) = (   0.2500000   0.5773503   0.0000000), wk =   0.0208333
        k(   59) = (   0.2916667   0.5051815   0.0000000), wk =   0.0208333
        k(   60) = (   0.2916667   0.5532940   0.0000000), wk =   0.0416667
        k(   61) = (   0.3333333   0.5773503   0.0000000), wk =   0.0069444

     Dense  grid:   247709 G-vectors     FFT dimensions: (  54,  54, 216)

     Estimated max dynamical RAM per process >     215.35 MB

     Estimated total dynamical RAM >       1.26 GB

     Initial potential from superposition of free atoms

     starting charge   25.99991, renormalised to   28.00000

     negative rho (up, down):  2.465E-03 0.000E+00
     Starting wfcs are   18 randomized atomic wfcs

     total cpu time spent up to now is        8.3 secs

     Self-consistent Calculation

     iteration #  1     ecut=    80.00 Ry     beta= 0.70
     Davidson diagonalization with overlap
     ethr =  1.00E-02,  avg # of iterations =  2.0

     negative rho (up, down):  1.719E-03 0.000E+00

     total cpu time spent up to now is       29.5 secs

     total energy              =    -325.49656555 Ry
     estimated scf accuracy    <       2.41117033 Ry

     iteration #  2     ecut=    80.00 Ry     beta= 0.70
     Davidson diagonalization with overlap
     ethr =  8.61E-03,  avg # of iterations =  2.0

     negative rho (up, down):  1.858E-03 0.000E+00

     total cpu time spent up to now is       51.8 secs

     total energy              =    -326.34875007 Ry
     estimated scf accuracy    <       0.29381335 Ry

     iteration #  3     ecut=    80.00 Ry     beta= 0.70
     Davidson diagonalization with overlap
     ethr =  1.05E-03,  avg # of iterations =  2.1

     negative rho (up, down):  1.969E-03 0.000E+00

     total cpu time spent up to now is       73.6 secs

     total energy              =    -326.38837122 Ry
     estimated scf accuracy    <       0.00610242 Ry

     iteration #  4     ecut=    80.00 Ry     beta= 0.70
     Davidson diagonalization with overlap
     ethr =  2.18E-05,  avg # of iterations =  2.9

     negative rho (up, down):  1.927E-03 0.000E+00

     total cpu time spent up to now is       98.5 secs

     total energy              =    -326.39088609 Ry
     estimated scf accuracy    <       0.00098920 Ry

     iteration #  5     ecut=    80.00 Ry     beta= 0.70
     Davidson diagonalization with overlap
     ethr =  3.53E-06,  avg # of iterations =  2.3

     negative rho (up, down):  1.913E-03 0.000E+00

     total cpu time spent up to now is      123.0 secs

     total energy              =    -326.39114108 Ry
     estimated scf accuracy    <       0.00001001 Ry

     iteration #  6     ecut=    80.00 Ry     beta= 0.70
     Davidson diagonalization with overlap
     ethr =  3.57E-08,  avg # of iterations =  5.0

     negative rho (up, down):  1.915E-03 0.000E+00

     total cpu time spent up to now is      150.3 secs

     End of self-consistent calculation

          k = 0.0000 0.0000 0.0000 ( 31055 PWs)   bands (ev):

   -24.2070 -24.2070 -24.2065 -24.0918 -24.0918 -23.9436 -23.9436 -23.8601
   -23.8601 -23.7975 -12.2913  -4.3420  -3.7571  -3.4326

          k = 0.0000 0.0481 0.0000 ( 31029 PWs)   bands (ev):

   -24.2116 -24.2114 -24.2062 -24.0922 -24.0911 -23.9391 -23.9385 -23.8609
   -23.8598 -23.7974 -12.2765  -4.3266  -4.2047  -3.4663

          k = 0.0000 0.0962 0.0000 ( 30985 PWs)   bands (ev):

   -24.2241 -24.2239 -24.2052 -24.0933 -24.0891 -23.9271 -23.9246 -23.8633
   -23.8586 -23.7971 -12.2321  -4.7848  -4.2806  -3.5603

          k = 0.0000 0.1443 0.0000 ( 30980 PWs)   bands (ev):

   -24.2421 -24.2419 -24.2036 -24.0951 -24.0858 -23.9104 -23.9045 -23.8670
   -23.8569 -23.7961 -12.1583  -5.3659  -4.2044  -3.6979

          k = 0.0000 0.1925 0.0000 ( 30974 PWs)   bands (ev):

   -24.2626 -24.2626 -24.2015 -24.0973 -24.0813 -23.8922 -23.8812 -23.8722
   -23.8546 -23.7939 -12.0555  -5.9359  -4.0986  -3.8599

          k = 0.0000 0.2406 0.0000 ( 30978 PWs)   bands (ev):

   -24.2842 -24.2838 -24.1990 -24.0999 -24.0758 -23.8784 -23.8756 -23.8568
   -23.8521 -23.7894 -11.9243  -6.4884  -4.0296  -3.9645

          k = 0.0000 0.2887 0.0000 ( 30950 PWs)   bands (ev):

   -24.3050 -24.3041 -24.1963 -24.1026 -24.0695 -23.8855 -23.8628 -23.8494
   -23.8330 -23.7819 -11.7661  -7.0183  -4.1943  -3.8038

          k = 0.0000 0.3368 0.0000 ( 30960 PWs)   bands (ev):

   -24.3240 -24.3225 -24.1936 -24.1053 -24.0626 -23.8931 -23.8546 -23.8467
   -23.8111 -23.7716 -11.5829  -7.5204  -4.3448  -3.6193

          k = 0.0000 0.3849 0.0000 ( 30936 PWs)   bands (ev):

   -24.3405 -24.3384 -24.1910 -24.1077 -24.0556 -23.9008 -23.8503 -23.8443
   -23.7920 -23.7600 -11.3788  -7.9884  -4.4748  -3.4156

          k = 0.0000 0.4330 0.0000 ( 30892 PWs)   bands (ev):

   -24.3538 -24.3512 -24.1888 -24.1097 -24.0490 -23.9080 -23.8483 -23.8423
   -23.7764 -23.7491 -11.1617  -8.4126  -4.5798  -3.2013

          k = 0.0000 0.4811 0.0000 ( 30888 PWs)   bands (ev):

   -24.3636 -24.3606 -24.1870 -24.1113 -24.0435 -23.9141 -23.8476 -23.8408
   -23.7649 -23.7405 -10.9483  -8.7748  -4.6567  -2.9933

          k = 0.0000 0.5292 0.0000 ( 30918 PWs)   bands (ev):

   -24.3696 -24.3663 -24.1859 -24.1123 -24.0397 -23.9181 -23.8474 -23.8398
   -23.7578 -23.7349 -10.7747  -9.0381  -4.7036  -2.8264

          k = 0.0000-0.5774 0.0000 ( 30974 PWs)   bands (ev):

   -24.3716 -24.3682 -24.1856 -24.1126 -24.0384 -23.9196 -23.8473 -23.8395
   -23.7554 -23.7330 -10.7032  -9.1395  -4.7193  -2.7584

          k = 0.0417 0.0722 0.0000 ( 30991 PWs)   bands (ev):

   -24.2228 -24.2164 -24.2063 -24.0930 -24.0898 -23.9310 -23.9290 -23.8625
   -23.8590 -23.7972 -12.2469  -4.6275  -4.2959  -3.5338

          k = 0.0417 0.1203 0.0000 ( 30967 PWs)   bands (ev):

   -24.2406 -24.2286 -24.2055 -24.0944 -24.0871 -23.9168 -23.9120 -23.8656
   -23.8575 -23.7965 -12.1878  -5.1579  -4.2348  -3.6583

          k = 0.0417 0.1684 0.0000 ( 30990 PWs)   bands (ev):

   -24.2619 -24.2453 -24.2038 -24.0965 -24.0831 -23.8995 -23.8907 -23.8701
   -23.8555 -23.7948 -12.0994  -5.7079  -4.1438  -3.8180

          k = 0.0417 0.2165 0.0000 ( 30956 PWs)   bands (ev):

   -24.2847 -24.2641 -24.2015 -24.0990 -24.0780 -23.8820 -23.8758 -23.8675
   -23.8530 -23.7913 -11.9824  -6.2537  -4.0238  -3.9931

          k = 0.0417 0.2646 0.0000 ( 30950 PWs)   bands (ev):

   -24.3071 -24.2831 -24.1989 -24.1017 -24.0720 -23.8826 -23.8672 -23.8504
   -23.8446 -23.7846 -11.8376  -6.7847  -4.1682  -3.8762

          k = 0.0417 0.3127 0.0000 ( 30973 PWs)   bands (ev):

   -24.3281 -24.3011 -24.1962 -24.1044 -24.0653 -23.8901 -23.8569 -23.8476
   -23.8232 -23.7745 -11.6666  -7.2938  -4.3322  -3.7033

          k = 0.0417 0.3608 0.0000 ( 30961 PWs)   bands (ev):

   -24.3466 -24.3171 -24.1935 -24.1070 -24.0582 -23.8979 -23.8511 -23.8451
   -23.8042 -23.7620 -11.4722  -7.7745  -4.4775  -3.5085

          k = 0.0417 0.4090 0.0000 ( 30930 PWs)   bands (ev):

   -24.3621 -24.3306 -24.1911 -24.1093 -24.0512 -23.9056 -23.8483 -23.8428
   -23.7882 -23.7492 -11.2602  -8.2184  -4.5987  -3.2980

          k = 0.0417 0.4571 0.0000 ( 30898 PWs)   bands (ev):

   -24.3741 -24.3410 -24.1891 -24.1111 -24.0449 -23.9124 -23.8472 -23.8410
   -23.7758 -23.7383 -11.0417  -8.6124  -4.6924  -3.0837

          k = 0.0417 0.5052 0.0000 ( 30918 PWs)   bands (ev):

   -24.3822 -24.3482 -24.1876 -24.1124 -24.0401 -23.9176 -23.8469 -23.8397
   -23.7673 -23.7303 -10.8413  -8.9305  -4.7560  -2.8897

          k = 0.0417 0.5533 0.0000 ( 30931 PWs)   bands (ev):

   -24.3864 -24.3518 -24.1869 -24.1131 -24.0374 -23.9205 -23.8469 -23.8391
   -23.7630 -23.7262 -10.7094  -9.1215  -4.7881  -2.7637

          k = 0.0833 0.1443 0.0000 ( 30961 PWs)   bands (ev):

   -24.2617 -24.2379 -24.2058 -24.0963 -24.0836 -23.9022 -23.8939 -23.8695
   -23.8557 -23.7951 -12.1141  -5.6223  -4.1589  -3.8174

          k = 0.0833 0.1925 0.0000 ( 30973 PWs)   bands (ev):

   -24.2851 -24.2513 -24.2049 -24.0986 -24.0790 -23.8856 -23.8747 -23.8736
   -23.8534 -23.7919 -12.0115  -6.1189  -4.0535  -4.0073

          k = 0.0833 0.2406 0.0000 ( 30962 PWs)   bands (ev):

   -24.3087 -24.2666 -24.2031 -24.1013 -24.0732 -23.8811 -23.8698 -23.8536
   -23.8508 -23.7854 -11.8806  -6.6217  -4.2044  -3.9199

          k = 0.0833 0.2887 0.0000 ( 30960 PWs)   bands (ev):

   -24.3313 -24.2822 -24.2008 -24.1042 -24.0666 -23.8885 -23.8576 -23.8480
   -23.8352 -23.7747 -11.7226  -7.1163  -4.3930  -3.7597

          k = 0.0833 0.3368 0.0000 ( 30963 PWs)   bands (ev):

   -24.3518 -24.2969 -24.1982 -24.1069 -24.0593 -23.8965 -23.8503 -23.8452
   -23.8184 -23.7606 -11.5396  -7.5931  -4.5630  -3.5756

          k = 0.0833 0.3849 0.0000 ( 30949 PWs)   bands (ev):

   -24.3694 -24.3098 -24.1958 -24.1095 -24.0519 -23.9046 -23.8469 -23.8427
   -23.8036 -23.7457 -11.3354  -8.0430  -4.7083  -3.3721

          k = 0.0833 0.4330 0.0000 ( 30921 PWs)   bands (ev):

   -24.3837 -24.3203 -24.1936 -24.1116 -24.0448 -23.9122 -23.8456 -23.8406
   -23.7912 -23.7322 -11.1176  -8.4550  -4.8245  -3.1572

          k = 0.0833 0.4811 0.0000 ( 30923 PWs)   bands (ev):

   -24.3941 -24.3281 -24.1919 -24.1132 -24.0388 -23.9187 -23.8453 -23.8390
   -23.7821 -23.7218 -10.9025  -8.8104  -4.9091  -2.9476

          k = 0.0833 0.5292 0.0000 ( 30914 PWs)   bands (ev):

   -24.4005 -24.3329 -24.1908 -24.1143 -24.0346 -23.9231 -23.8453 -23.8380
   -23.7764 -23.7152 -10.7259  -9.0718  -4.9605  -2.7778

          k = 0.0833 0.5774 0.0000 ( 30912 PWs)   bands (ev):

   -24.4027 -24.3345 -24.1904 -24.1146 -24.0331 -23.9247 -23.8454 -23.8377
   -23.7745 -23.7130 -10.6525  -9.1736  -4.9777  -2.7080

          k = 0.1250 0.2165 0.0000 ( 30975 PWs)   bands (ev):

   -24.3093 -24.2599 -24.2055 -24.1013 -24.0736 -23.8807 -23.8705 -23.8570
   -23.8508 -23.7855 -11.8950  -6.5621  -4.2278  -3.9345

          k = 0.1250 0.2646 0.0000 ( 30952 PWs)   bands (ev):

   -24.3330 -24.2704 -24.2050 -24.1042 -24.0670 -23.8878 -23.8567 -23.8480
   -23.8431 -23.7744 -11.7507  -7.0162  -4.4497  -3.7881

          k = 0.1250 0.3127 0.0000 ( 30957 PWs)   bands (ev):

   -24.3550 -24.2815 -24.2036 -24.1071 -24.0597 -23.8959 -23.8475 -23.8451
   -23.8305 -23.7592 -11.5803  -7.4676  -4.6551  -3.6161

          k = 0.1250 0.3608 0.0000 ( 30928 PWs)   bands (ev):

   -24.3745 -24.2922 -24.2018 -24.1099 -24.0518 -23.9044 -23.8435 -23.8424
   -23.8177 -23.7425 -11.3862  -7.9054  -4.8344  -3.4221

          k = 0.1250 0.4090 0.0000 ( 30927 PWs)   bands (ev):

   -24.3908 -24.3015 -24.1999 -24.1124 -24.0439 -23.9129 -23.8424 -23.8400
   -23.8060 -23.7270 -11.1736  -8.3188  -4.9818  -3.2114

          k = 0.1250 0.4571 0.0000 ( 30929 PWs)   bands (ev):

   -24.4034 -24.3089 -24.1983 -24.1144 -24.0366 -23.9206 -23.8424 -23.8380
   -23.7966 -23.7142 -10.9528  -8.6934  -5.0944  -2.9951

          k = 0.1250 0.5052 0.0000 ( 30924 PWs)   bands (ev):

   -24.4120 -24.3140 -24.1970 -24.1158 -24.0308 -23.9268 -23.8427 -23.8367
   -23.7901 -23.7053 -10.7475  -9.0028  -5.1702  -2.7964

          k = 0.1250 0.5533 0.0000 ( 30901 PWs)   bands (ev):

   -24.4163 -24.3166 -24.1964 -24.1165 -24.0275 -23.9303 -23.8430 -23.8360
   -23.7868 -23.7006 -10.6092  -9.1935  -5.2083  -2.6642

          k = 0.1667 0.2887 0.0000 ( 30971 PWs)   bands (ev):

   -24.3561 -24.2755 -24.2063 -24.1072 -24.0597 -23.8957 -23.8450 -23.8442
   -23.8371 -23.7586 -11.5938  -7.4221  -4.6934  -3.6297

          k = 0.1667 0.3368 0.0000 ( 30955 PWs)   bands (ev):

   -24.3770 -24.2813 -24.2067 -24.1103 -24.0516 -23.9045 -23.8421 -23.8378
   -23.8292 -23.7408 -11.4118  -7.8281  -4.9148  -3.4473

          k = 0.1667 0.3849 0.0000 ( 30938 PWs)   bands (ev):

   -24.3951 -24.2871 -24.2063 -24.1131 -24.0430 -23.9136 -23.8394 -23.8373
   -23.8186 -23.7236 -11.2078  -8.2241  -5.1031  -3.2446

          k = 0.1667 0.4330 0.0000 ( 30925 PWs)   bands (ev):

   -24.4097 -24.2924 -24.2056 -24.1155 -24.0345 -23.9226 -23.8380 -23.8371
   -23.8095 -23.7089 -10.9884  -8.5982  -5.2525  -3.0287

          k = 0.1667 0.4811 0.0000 ( 30899 PWs)   bands (ev):

   -24.4204 -24.2966 -24.2048 -24.1173 -24.0269 -23.9305 -23.8390 -23.8354
   -23.8027 -23.6976 -10.7679  -8.9319  -5.3604  -2.8141

          k = 0.1667 0.5292 0.0000 ( 30912 PWs)   bands (ev):

   -24.4270 -24.2992 -24.2043 -24.1184 -24.0213 -23.9363 -23.8397 -23.8343
   -23.7984 -23.6907 -10.5810  -9.1880  -5.4255  -2.6343

          k = 0.1667 0.5774 0.0000 ( 30892 PWs)   bands (ev):

   -24.4292 -24.3001 -24.2040 -24.1188 -24.0193 -23.9384 -23.8399 -23.8339
   -23.7970 -23.6883 -10.5001  -9.2920  -5.4473  -2.5574

          k = 0.2083 0.3608 0.0000 ( 30923 PWs)   bands (ev):

   -24.3966 -24.2815 -24.2093 -24.1133 -24.0426 -23.9139 -23.8392 -23.8320
   -23.8265 -23.7225 -11.2193  -8.1898  -5.1482  -3.2557

          k = 0.2083 0.4090 0.0000 ( 30927 PWs)   bands (ev):

   -24.4129 -24.2821 -24.2112 -24.1161 -24.0332 -23.9238 -23.8366 -23.8327
   -23.8193 -23.7061 -11.0068  -8.5440  -5.3426  -3.0460

          k = 0.2083 0.4571 0.0000 ( 30893 PWs)   bands (ev):

   -24.4256 -24.2830 -24.2124 -24.1183 -24.0239 -23.9334 -23.8345 -23.8342
   -23.8131 -23.6929 -10.7823  -8.8785  -5.4914  -2.8266

          k = 0.2083 0.5052 0.0000 ( 30899 PWs)   bands (ev):

   -24.4342 -24.2837 -24.2131 -24.1198 -24.0159 -23.9416 -23.8354 -23.8330
   -23.8087 -23.6837 -10.5656  -9.1706  -5.5916  -2.6170

          k = 0.2083 0.5533 0.0000 ( 30907 PWs)   bands (ev):

   -24.4386 -24.2842 -24.2133 -24.1206 -24.0110 -23.9467 -23.8361 -23.8322
   -23.8064 -23.6790 -10.4096  -9.3648  -5.6419  -2.4679

          k = 0.2500 0.4330 0.0000 ( 30919 PWs)   bands (ev):

   -24.4273 -24.2774 -24.2159 -24.1187 -24.0228 -23.9345 -23.8341 -23.8309
   -23.8183 -23.6913 -10.7875  -8.8586  -5.5380  -2.8311

          k = 0.2500 0.4811 0.0000 ( 30886 PWs)   bands (ev):

   -24.4379 -24.2734 -24.2199 -24.1206 -24.0126 -23.9449 -23.8323 -23.8311
   -23.8161 -23.6801 -10.5592  -9.1567  -5.6813  -2.6093

          k = 0.2500 0.5292 0.0000 ( 30876 PWs)   bands (ev):

   -24.4444 -24.2707 -24.2227 -24.1219 -24.0041 -23.9536 -23.8318 -23.8311
   -23.8143 -23.6732 -10.3490  -9.4097  -5.7685  -2.4072

          k = 0.2500 0.5774 0.0000 ( 30880 PWs)   bands (ev):

   -24.4466 -24.2697 -24.2237 -24.1223 -24.0004 -23.9573 -23.8321 -23.8307
   -23.8136 -23.6708 -10.2453  -9.5277  -5.7977  -2.3085

          k = 0.2917 0.5052 0.0000 ( 30881 PWs)   bands (ev):

   -24.4464 -24.2644 -24.2275 -24.1223 -24.0012 -23.9565 -23.8307 -23.8290
   -23.8183 -23.6712 -10.3275  -9.4249  -5.8123  -2.3855

          k = 0.2917 0.5533 0.0000 ( 30864 PWs)   bands (ev):

   -24.4506 -24.2578 -24.2335 -24.1231 -23.9916 -23.9661 -23.8299 -23.8280
   -23.8194 -23.6667 -10.1216  -9.6490  -5.8790  -2.1883

          k = 0.3333 0.5774 0.0000 ( 30870 PWs)   bands (ev):

   -24.4527 -24.2453 -24.2453 -24.1236 -23.9789 -23.9789 -23.8295 -23.8239
   -23.8239 -23.6645  -9.8872  -9.8872  -5.9166  -1.9643

     highest occupied level (ev):    -1.9643

!    total energy              =    -326.39122807 Ry
     estimated scf accuracy    <       0.00000075 Ry

     The total energy is the sum of the following terms:
     one-electron contribution =    -882.71922979 Ry
     hartree contribution      =     448.41684385 Ry
     xc contribution           =     -95.06714591 Ry
     ewald contribution        =     202.97830378 Ry

     convergence has been achieved in   6 iterations

     Writing output data file ../tmp/stanene.save/

     init_run     :      7.93s CPU      8.22s WALL (       1 calls)
     electrons    :    137.87s CPU    141.96s WALL (       1 calls)

     Called by init_run:
     wfcinit      :      7.28s CPU      7.48s WALL (       1 calls)
     potinit      :      0.17s CPU      0.18s WALL (       1 calls)
     hinit0       :      0.23s CPU      0.24s WALL (       1 calls)

     Called by electrons:
     c_bands      :    118.01s CPU    120.44s WALL (       6 calls)
     sum_band     :     17.98s CPU     19.04s WALL (       6 calls)
     v_of_rho     :      0.69s CPU      0.74s WALL (       7 calls)
     newd         :      1.23s CPU      1.83s WALL (       7 calls)
     mix_rho      :      0.15s CPU      0.16s WALL (       6 calls)

     Called by c_bands:
     init_us_2    :      1.20s CPU      1.21s WALL (     793 calls)
     cegterg      :    113.76s CPU    116.18s WALL (     366 calls)

     Called by *egterg:
     cdiaghg      :      0.70s CPU      0.70s WALL (    1362 calls)
     h_psi        :     85.61s CPU     88.14s WALL (    1423 calls)
     s_psi        :      5.25s CPU      5.27s WALL (    1423 calls)
     g_psi        :      0.47s CPU      0.47s WALL (     996 calls)

     Called by h_psi:
     h_psi:calbec :      8.37s CPU      8.59s WALL (    1423 calls)
     vloc_psi     :     71.31s CPU     73.59s WALL (    1423 calls)
     add_vuspsi   :      5.65s CPU      5.70s WALL (    1423 calls)

     General routines
     calbec       :     11.18s CPU     11.41s WALL (    1789 calls)
     fft          :      0.65s CPU      0.68s WALL (      77 calls)
     ffts         :      0.04s CPU      0.04s WALL (       6 calls)
     fftw         :     73.99s CPU     76.28s WALL (   38756 calls)

     Parallel routines
     fft_scatt_xy :      8.67s CPU      8.96s WALL (   38839 calls)
     fft_scatt_yz :     33.19s CPU     34.12s WALL (   38839 calls)

     PWSCF        :   2m26.15s CPU   2m31.04s WALL


   This run was terminated on:   0:26:14  20Jan2024            

=------------------------------------------------------------------------------=
   JOB DONE.
=------------------------------------------------------------------------------=
