
     Program PWSCF v.6.7MaX starts on 20Jan2024 at  0:21:55 

     This program is part of the open-source Quantum ESPRESSO suite
     for quantum simulation of materials; please cite
         "P. Giannozzi et al., J. Phys.:Condens. Matter 21 395502 (2009);
         "P. Giannozzi et al., J. Phys.:Condens. Matter 29 465901 (2017);
          URL http://www.quantum-espresso.org", 
     in publications or presentations arising from this work. More details at
     http://www.quantum-espresso.org/quote

     Parallel version (MPI), running on     6 processors

     MPI processes distributed on     1 nodes
     R & G space division:  proc/nbgrp/npool/nimage =       6
     Waiting for input...
     Reading input from standard input

     Current dimensions of program PWSCF are:
     Max number of different atomic species (ntypx) = 10
     Max number of k-points (npk) =  40000
     Max angular momentum in pseudopotentials (lmaxx) =  3

     Subspace diagonalization in iterative solution of the eigenvalue problem:
     one sub-group per band group will be used
     scalapack distributed-memory algorithm (size of sub-group:  2*  2 procs)


     Parallelization info
     --------------------
     sticks:   dense  smooth     PW     G-vecs:    dense   smooth      PW
     Min         251     251     70                33785    33785    4986
     Max         252     252     71                33802    33802    5005
     Sum        1507    1507    421               202743   202743   29939



     bravais-lattice index     =            4
     lattice parameter (alat)  =       8.8439  a.u.
     unit-cell volume          =    2560.0529 (a.u.)^3
     number of atoms/cell      =            2
     number of atomic types    =            1
     number of electrons       =        28.00
     number of Kohn-Sham states=           14
     kinetic-energy cutoff     =      70.0000  Ry
     charge density cutoff     =     280.0000  Ry
     scf convergence threshold =      1.0E-06
     mixing beta               =       0.7000
     number of iterations used =            8  plain     mixing
     Exchange-correlation= SLA  PW   PBE  PBE
                           (   1   4   3   4   0   0   0)

     celldm(1)=   8.843918  celldm(2)=   0.000000  celldm(3)=   4.273504
     celldm(4)=   0.000000  celldm(5)=   0.000000  celldm(6)=   0.000000

     crystal axes: (cart. coord. in units of alat)
               a(1) = (   1.000000   0.000000   0.000000 )  
               a(2) = (  -0.500000   0.866025   0.000000 )  
               a(3) = (   0.000000   0.000000   4.273504 )  

     reciprocal axes: (cart. coord. in units 2 pi/alat)
               b(1) = (  1.000000  0.577350 -0.000000 )  
               b(2) = (  0.000000  1.154701  0.000000 )  
               b(3) = (  0.000000 -0.000000  0.234000 )  


     PseudoPot. # 1 for Sn read from file:
     ../pseudo/Sn_pbe_v1.uspp.F.UPF
     MD5 check sum: 4cf58ce39ec5d5d420df3dd08604eb00
     Pseudo is Ultrasoft + core correction, Zval = 14.0
     Generated by new atomic code, or converted to UPF format
     Using radial grid of  891 points,  6 beta functions with: 
                l(1) =   0
                l(2) =   0
                l(3) =   1
                l(4) =   1
                l(5) =   2
                l(6) =   2
     Q(r) pseudized with  6 coefficients,  rinner =    1.200   1.200   1.200
                                                       1.200   1.200

     atomic species   valence    mass     pseudopotential
        Sn            14.00   118.71000     Sn( 1.00)

     24 Sym. Ops., with inversion, found



   Cartesian axes

     site n.     atom                  positions (alat units)
         1           Sn  tau(   1) = (   0.0000000   0.5773503   2.1367521  )
         2           Sn  tau(   2) = (   0.5000000   0.2886751   2.1367521  )

     number of k points=    61
                       cart. coord. in units 2pi/alat
        k(    1) = (   0.0000000   0.0000000   0.0000000), wk =   0.0034722
        k(    2) = (   0.0000000   0.0481125   0.0000000), wk =   0.0208333
        k(    3) = (   0.0000000   0.0962250   0.0000000), wk =   0.0208333
        k(    4) = (   0.0000000   0.1443376   0.0000000), wk =   0.0208333
        k(    5) = (   0.0000000   0.1924501   0.0000000), wk =   0.0208333
        k(    6) = (   0.0000000   0.2405626   0.0000000), wk =   0.0208333
        k(    7) = (   0.0000000   0.2886751   0.0000000), wk =   0.0208333
        k(    8) = (   0.0000000   0.3367877   0.0000000), wk =   0.0208333
        k(    9) = (   0.0000000   0.3849002   0.0000000), wk =   0.0208333
        k(   10) = (   0.0000000   0.4330127   0.0000000), wk =   0.0208333
        k(   11) = (   0.0000000   0.4811252   0.0000000), wk =   0.0208333
        k(   12) = (   0.0000000   0.5292377   0.0000000), wk =   0.0208333
        k(   13) = (   0.0000000  -0.5773503   0.0000000), wk =   0.0104167
        k(   14) = (   0.0416667   0.0721688   0.0000000), wk =   0.0208333
        k(   15) = (   0.0416667   0.1202813   0.0000000), wk =   0.0416667
        k(   16) = (   0.0416667   0.1683938   0.0000000), wk =   0.0416667
        k(   17) = (   0.0416667   0.2165064   0.0000000), wk =   0.0416667
        k(   18) = (   0.0416667   0.2646189   0.0000000), wk =   0.0416667
        k(   19) = (   0.0416667   0.3127314   0.0000000), wk =   0.0416667
        k(   20) = (   0.0416667   0.3608439   0.0000000), wk =   0.0416667
        k(   21) = (   0.0416667   0.4089564   0.0000000), wk =   0.0416667
        k(   22) = (   0.0416667   0.4570690   0.0000000), wk =   0.0416667
        k(   23) = (   0.0416667   0.5051815   0.0000000), wk =   0.0416667
        k(   24) = (   0.0416667   0.5532940   0.0000000), wk =   0.0416667
        k(   25) = (   0.0833333   0.1443376   0.0000000), wk =   0.0208333
        k(   26) = (   0.0833333   0.1924501   0.0000000), wk =   0.0416667
        k(   27) = (   0.0833333   0.2405626   0.0000000), wk =   0.0416667
        k(   28) = (   0.0833333   0.2886751   0.0000000), wk =   0.0416667
        k(   29) = (   0.0833333   0.3367877   0.0000000), wk =   0.0416667
        k(   30) = (   0.0833333   0.3849002   0.0000000), wk =   0.0416667
        k(   31) = (   0.0833333   0.4330127   0.0000000), wk =   0.0416667
        k(   32) = (   0.0833333   0.4811252   0.0000000), wk =   0.0416667
        k(   33) = (   0.0833333   0.5292377   0.0000000), wk =   0.0416667
        k(   34) = (   0.0833333   0.5773503   0.0000000), wk =   0.0208333
        k(   35) = (   0.1250000   0.2165064   0.0000000), wk =   0.0208333
        k(   36) = (   0.1250000   0.2646189   0.0000000), wk =   0.0416667
        k(   37) = (   0.1250000   0.3127314   0.0000000), wk =   0.0416667
        k(   38) = (   0.1250000   0.3608439   0.0000000), wk =   0.0416667
        k(   39) = (   0.1250000   0.4089564   0.0000000), wk =   0.0416667
        k(   40) = (   0.1250000   0.4570690   0.0000000), wk =   0.0416667
        k(   41) = (   0.1250000   0.5051815   0.0000000), wk =   0.0416667
        k(   42) = (   0.1250000   0.5532940   0.0000000), wk =   0.0416667
        k(   43) = (   0.1666667   0.2886751   0.0000000), wk =   0.0208333
        k(   44) = (   0.1666667   0.3367877   0.0000000), wk =   0.0416667
        k(   45) = (   0.1666667   0.3849002   0.0000000), wk =   0.0416667
        k(   46) = (   0.1666667   0.4330127   0.0000000), wk =   0.0416667
        k(   47) = (   0.1666667   0.4811252   0.0000000), wk =   0.0416667
        k(   48) = (   0.1666667   0.5292377   0.0000000), wk =   0.0416667
        k(   49) = (   0.1666667   0.5773503   0.0000000), wk =   0.0208333
        k(   50) = (   0.2083333   0.3608439   0.0000000), wk =   0.0208333
        k(   51) = (   0.2083333   0.4089564   0.0000000), wk =   0.0416667
        k(   52) = (   0.2083333   0.4570690   0.0000000), wk =   0.0416667
        k(   53) = (   0.2083333   0.5051815   0.0000000), wk =   0.0416667
        k(   54) = (   0.2083333   0.5532940   0.0000000), wk =   0.0416667
        k(   55) = (   0.2500000   0.4330127   0.0000000), wk =   0.0208333
        k(   56) = (   0.2500000   0.4811252   0.0000000), wk =   0.0416667
        k(   57) = (   0.2500000   0.5292377   0.0000000), wk =   0.0416667
        k(   58) = (   0.2500000   0.5773503   0.0000000), wk =   0.0208333
        k(   59) = (   0.2916667   0.5051815   0.0000000), wk =   0.0208333
        k(   60) = (   0.2916667   0.5532940   0.0000000), wk =   0.0416667
        k(   61) = (   0.3333333   0.5773503   0.0000000), wk =   0.0069444

     Dense  grid:   202743 G-vectors     FFT dimensions: (  48,  48, 216)

     Estimated max dynamical RAM per process >     176.22 MB

     Estimated total dynamical RAM >       1.03 GB

     Initial potential from superposition of free atoms

     starting charge   25.99991, renormalised to   28.00000

     negative rho (up, down):  1.111E-03 0.000E+00
     Starting wfcs are   18 randomized atomic wfcs

     total cpu time spent up to now is        6.7 secs

     Self-consistent Calculation

     iteration #  1     ecut=    70.00 Ry     beta= 0.70
     Davidson diagonalization with overlap
     ethr =  1.00E-02,  avg # of iterations =  2.0

     negative rho (up, down):  7.520E-04 0.000E+00

     total cpu time spent up to now is       22.2 secs

     total energy              =    -325.49546012 Ry
     estimated scf accuracy    <       2.41170604 Ry

     iteration #  2     ecut=    70.00 Ry     beta= 0.70
     Davidson diagonalization with overlap
     ethr =  8.61E-03,  avg # of iterations =  2.0

     negative rho (up, down):  8.421E-04 0.000E+00

     total cpu time spent up to now is       37.9 secs

     total energy              =    -326.34784520 Ry
     estimated scf accuracy    <       0.29391928 Ry

     iteration #  3     ecut=    70.00 Ry     beta= 0.70
     Davidson diagonalization with overlap
     ethr =  1.05E-03,  avg # of iterations =  2.1

     negative rho (up, down):  9.119E-04 0.000E+00

     total cpu time spent up to now is       54.1 secs

     total energy              =    -326.38752622 Ry
     estimated scf accuracy    <       0.00608947 Ry

     iteration #  4     ecut=    70.00 Ry     beta= 0.70
     Davidson diagonalization with overlap
     ethr =  2.17E-05,  avg # of iterations =  2.9

     negative rho (up, down):  8.897E-04 0.000E+00

     total cpu time spent up to now is       71.0 secs

     total energy              =    -326.39003362 Ry
     estimated scf accuracy    <       0.00097765 Ry

     iteration #  5     ecut=    70.00 Ry     beta= 0.70
     Davidson diagonalization with overlap
     ethr =  3.49E-06,  avg # of iterations =  2.3

     negative rho (up, down):  8.819E-04 0.000E+00

     total cpu time spent up to now is       87.2 secs

     total energy              =    -326.39028683 Ry
     estimated scf accuracy    <       0.00001085 Ry

     iteration #  6     ecut=    70.00 Ry     beta= 0.70
     Davidson diagonalization with overlap
     ethr =  3.87E-08,  avg # of iterations =  4.9

     negative rho (up, down):  8.827E-04 0.000E+00

     total cpu time spent up to now is      106.3 secs

     End of self-consistent calculation

          k = 0.0000 0.0000 0.0000 ( 25367 PWs)   bands (ev):

   -24.2035 -24.2035 -24.2034 -24.0877 -24.0877 -23.9401 -23.9401 -23.8560
   -23.8560 -23.7945 -12.2883  -4.3391  -3.7539  -3.4297

          k = 0.0000 0.0481 0.0000 ( 25355 PWs)   bands (ev):

   -24.2081 -24.2080 -24.2031 -24.0881 -24.0870 -23.9357 -23.9351 -23.8568
   -23.8556 -23.7944 -12.2735  -4.3237  -4.2016  -3.4634

          k = 0.0000 0.0962 0.0000 ( 25333 PWs)   bands (ev):

   -24.2207 -24.2205 -24.2021 -24.0892 -24.0850 -23.9237 -23.9211 -23.8592
   -23.8545 -23.7941 -12.2291  -4.7817  -4.2777  -3.5574

          k = 0.0000 0.1443 0.0000 ( 25349 PWs)   bands (ev):

   -24.2386 -24.2385 -24.2005 -24.0910 -24.0817 -23.9070 -23.9011 -23.8630
   -23.8528 -23.7931 -12.1553  -5.3628  -4.2015  -3.6950

          k = 0.0000 0.1925 0.0000 ( 25285 PWs)   bands (ev):

   -24.2592 -24.2592 -24.1983 -24.0932 -24.0772 -23.8889 -23.8778 -23.8681
   -23.8505 -23.7908 -12.0525  -5.9328  -4.0958  -3.8570

          k = 0.0000 0.2406 0.0000 ( 25298 PWs)   bands (ev):

   -24.2808 -24.2803 -24.1959 -24.0958 -24.0717 -23.8743 -23.8723 -23.8534
   -23.8480 -23.7863 -11.9214  -6.4853  -4.0267  -3.9617

          k = 0.0000 0.2887 0.0000 ( 25292 PWs)   bands (ev):

   -24.3016 -24.3006 -24.1932 -24.0985 -24.0654 -23.8814 -23.8595 -23.8453
   -23.8296 -23.7788 -11.7631  -7.0152  -4.1914  -3.8010

          k = 0.0000 0.3368 0.0000 ( 25300 PWs)   bands (ev):

   -24.3206 -24.3191 -24.1904 -24.1012 -24.0585 -23.8890 -23.8514 -23.8426
   -23.8077 -23.7684 -11.5799  -7.5173  -4.3419  -3.6165

          k = 0.0000 0.3849 0.0000 ( 25318 PWs)   bands (ev):

   -24.3371 -24.3350 -24.1878 -24.1036 -24.0515 -23.8967 -23.8471 -23.8402
   -23.7886 -23.7568 -11.3758  -7.9854  -4.4719  -3.4129

          k = 0.0000 0.4330 0.0000 ( 25324 PWs)   bands (ev):

   -24.3504 -24.3478 -24.1856 -24.1057 -24.0450 -23.9039 -23.8452 -23.8382
   -23.7730 -23.7459 -11.1587  -8.4096  -4.5769  -3.1986

          k = 0.0000 0.4811 0.0000 ( 25342 PWs)   bands (ev):

   -24.3602 -24.3572 -24.1839 -24.1072 -24.0394 -23.9100 -23.8445 -23.8367
   -23.7615 -23.7372 -10.9453  -8.7718  -4.6538  -2.9907

          k = 0.0000 0.5292 0.0000 ( 25316 PWs)   bands (ev):

   -24.3662 -24.3629 -24.1828 -24.1082 -24.0357 -23.9140 -23.8443 -23.8357
   -23.7544 -23.7316 -10.7717  -9.0351  -4.7007  -2.8238

          k = 0.0000-0.5774 0.0000 ( 25344 PWs)   bands (ev):

   -24.3682 -24.3648 -24.1824 -24.1085 -24.0343 -23.9155 -23.8443 -23.8354
   -23.7520 -23.7298 -10.7002  -9.1366  -4.7165  -2.7558

          k = 0.0417 0.0722 0.0000 ( 25329 PWs)   bands (ev):

   -24.2194 -24.2130 -24.2032 -24.0889 -24.0857 -23.9276 -23.9255 -23.8584
   -23.8549 -23.7942 -12.2439  -4.6244  -4.2930  -3.5309

          k = 0.0417 0.1203 0.0000 ( 25339 PWs)   bands (ev):

   -24.2372 -24.2251 -24.2023 -24.0904 -24.0830 -23.9134 -23.9086 -23.8615
   -23.8534 -23.7935 -12.1848  -5.1549  -4.2319  -3.6554

          k = 0.0417 0.1684 0.0000 ( 25336 PWs)   bands (ev):

   -24.2585 -24.2419 -24.2006 -24.0924 -24.0790 -23.8961 -23.8873 -23.8660
   -23.8514 -23.7918 -12.0965  -5.7048  -4.1409  -3.8151

          k = 0.0417 0.2165 0.0000 ( 25332 PWs)   bands (ev):

   -24.2813 -24.2607 -24.1983 -24.0949 -24.0739 -23.8787 -23.8718 -23.8641
   -23.8489 -23.7882 -11.9794  -6.2506  -4.0209  -3.9902

          k = 0.0417 0.2646 0.0000 ( 25308 PWs)   bands (ev):

   -24.3037 -24.2797 -24.1958 -24.0976 -24.0679 -23.8785 -23.8639 -23.8463
   -23.8412 -23.7815 -11.8346  -6.7817  -4.1653  -3.8734

          k = 0.0417 0.3127 0.0000 ( 25319 PWs)   bands (ev):

   -24.3246 -24.2976 -24.1930 -24.1003 -24.0612 -23.8860 -23.8537 -23.8436
   -23.8198 -23.7713 -11.6636  -7.2908  -4.3294  -3.7005

          k = 0.0417 0.3608 0.0000 ( 25301 PWs)   bands (ev):

   -24.3432 -24.3137 -24.1903 -24.1029 -24.0541 -23.8938 -23.8479 -23.8410
   -23.8008 -23.7587 -11.4692  -7.7715  -4.4746  -3.5057

          k = 0.0417 0.4090 0.0000 ( 25324 PWs)   bands (ev):

   -24.3587 -24.3272 -24.1879 -24.1052 -24.0471 -23.9015 -23.8452 -23.8387
   -23.7849 -23.7459 -11.2572  -8.2154  -4.5959  -3.2953

          k = 0.0417 0.4571 0.0000 ( 25324 PWs)   bands (ev):

   -24.3707 -24.3376 -24.1859 -24.1070 -24.0408 -23.9083 -23.8441 -23.8369
   -23.7725 -23.7350 -11.0386  -8.6094  -4.6895  -3.0810

          k = 0.0417 0.5052 0.0000 ( 25351 PWs)   bands (ev):

   -24.3788 -24.3448 -24.1845 -24.1083 -24.0360 -23.9135 -23.8438 -23.8356
   -23.7640 -23.7270 -10.8383  -8.9275  -4.7531  -2.8871

          k = 0.0417 0.5533 0.0000 ( 25327 PWs)   bands (ev):

   -24.3830 -24.3484 -24.1837 -24.1090 -24.0333 -23.9164 -23.8438 -23.8350
   -23.7597 -23.7229 -10.7064  -9.1185  -4.7853  -2.7611

          k = 0.0833 0.1443 0.0000 ( 25343 PWs)   bands (ev):

   -24.2583 -24.2345 -24.2026 -24.0922 -24.0796 -23.8988 -23.8905 -23.8654
   -23.8516 -23.7921 -12.1111  -5.6192  -4.1560  -3.8145

          k = 0.0833 0.1925 0.0000 ( 25318 PWs)   bands (ev):

   -24.2817 -24.2478 -24.2017 -24.0945 -24.0749 -23.8822 -23.8706 -23.8702
   -23.8493 -23.7888 -12.0085  -6.1159  -4.0507  -4.0045

          k = 0.0833 0.2406 0.0000 ( 25288 PWs)   bands (ev):

   -24.3053 -24.2632 -24.1999 -24.0972 -24.0691 -23.8770 -23.8665 -23.8502
   -23.8467 -23.7823 -11.8776  -6.6187  -4.2016  -3.9171

          k = 0.0833 0.2887 0.0000 ( 25294 PWs)   bands (ev):

   -24.3279 -24.2788 -24.1976 -24.1001 -24.0625 -23.8844 -23.8543 -23.8439
   -23.8318 -23.7715 -11.7196  -7.1133  -4.3901  -3.7569

          k = 0.0833 0.3368 0.0000 ( 25316 PWs)   bands (ev):

   -24.3484 -24.2935 -24.1951 -24.1028 -24.0552 -23.8924 -23.8471 -23.8411
   -23.8151 -23.7573 -11.5366  -7.5901  -4.5602  -3.5728

          k = 0.0833 0.3849 0.0000 ( 25301 PWs)   bands (ev):

   -24.3660 -24.3064 -24.1926 -24.1054 -24.0478 -23.9005 -23.8437 -23.8386
   -23.8002 -23.7424 -11.3324  -8.0400  -4.7054  -3.3693

          k = 0.0833 0.4330 0.0000 ( 25308 PWs)   bands (ev):

   -24.3803 -24.3169 -24.1904 -24.1075 -24.0407 -23.9081 -23.8425 -23.8365
   -23.7879 -23.7289 -11.1146  -8.4520  -4.8217  -3.1545

          k = 0.0833 0.4811 0.0000 ( 25338 PWs)   bands (ev):

   -24.3907 -24.3247 -24.1887 -24.1092 -24.0347 -23.9146 -23.8422 -23.8349
   -23.7787 -23.7184 -10.8995  -8.8074  -4.9063  -2.9450

          k = 0.0833 0.5292 0.0000 ( 25337 PWs)   bands (ev):

   -24.3971 -24.3295 -24.1876 -24.1102 -24.0305 -23.9190 -23.8423 -23.8339
   -23.7731 -23.7119 -10.7229  -9.0688  -4.9577  -2.7753

          k = 0.0833 0.5774 0.0000 ( 25330 PWs)   bands (ev):

   -24.3992 -24.3311 -24.1872 -24.1105 -24.0290 -23.9206 -23.8423 -23.8336
   -23.7712 -23.7096 -10.6495  -9.1706  -4.9749  -2.7055

          k = 0.1250 0.2165 0.0000 ( 25306 PWs)   bands (ev):

   -24.3059 -24.2565 -24.2023 -24.0972 -24.0695 -23.8766 -23.8672 -23.8536
   -23.8467 -23.7824 -11.8920  -6.5590  -4.2250  -3.9317

          k = 0.1250 0.2646 0.0000 ( 25295 PWs)   bands (ev):

   -24.3295 -24.2670 -24.2018 -24.1001 -24.0630 -23.8838 -23.8534 -23.8439
   -23.8399 -23.7712 -11.7478  -7.0131  -4.4468  -3.7852

          k = 0.1250 0.3127 0.0000 ( 25301 PWs)   bands (ev):

   -24.3516 -24.2781 -24.2004 -24.1030 -24.0556 -23.8918 -23.8442 -23.8410
   -23.8272 -23.7559 -11.5773  -7.4645  -4.6523  -3.6133

          k = 0.1250 0.3608 0.0000 ( 25306 PWs)   bands (ev):

   -24.3711 -24.2888 -24.1986 -24.1059 -24.0477 -23.9003 -23.8403 -23.8383
   -23.8144 -23.7392 -11.3832  -7.9023  -4.8316  -3.4193

          k = 0.1250 0.4090 0.0000 ( 25312 PWs)   bands (ev):

   -24.3873 -24.2981 -24.1968 -24.1083 -24.0398 -23.9088 -23.8392 -23.8359
   -23.8027 -23.7237 -11.1706  -8.3158  -4.9791  -3.2087

          k = 0.1250 0.4571 0.0000 ( 25314 PWs)   bands (ev):

   -24.4000 -24.3055 -24.1951 -24.1103 -24.0325 -23.9165 -23.8393 -23.8339
   -23.7933 -23.7109 -10.9498  -8.6904  -5.0916  -2.9925

          k = 0.1250 0.5052 0.0000 ( 25310 PWs)   bands (ev):

   -24.4086 -24.3106 -24.1938 -24.1117 -24.0267 -23.9227 -23.8396 -23.8326
   -23.7868 -23.7019 -10.7444  -8.9998  -5.1674  -2.7938

          k = 0.1250 0.5533 0.0000 ( 25350 PWs)   bands (ev):

   -24.4129 -24.3133 -24.1932 -24.1124 -24.0234 -23.9262 -23.8399 -23.8319
   -23.7835 -23.6973 -10.6062  -9.1905  -5.2055  -2.6617

          k = 0.1667 0.2887 0.0000 ( 25286 PWs)   bands (ev):

   -24.3526 -24.2721 -24.2031 -24.1031 -24.0557 -23.8916 -23.8409 -23.8408
   -23.8339 -23.7553 -11.5908  -7.4190  -4.6906  -3.6269

          k = 0.1667 0.3368 0.0000 ( 25315 PWs)   bands (ev):

   -24.3736 -24.2779 -24.2035 -24.1062 -24.0475 -23.9004 -23.8380 -23.8345
   -23.8259 -23.7375 -11.4088  -7.8251  -4.9121  -3.4445

          k = 0.1667 0.3849 0.0000 ( 25294 PWs)   bands (ev):

   -24.3917 -24.2838 -24.2032 -24.1090 -24.0389 -23.9095 -23.8353 -23.8341
   -23.8153 -23.7203 -11.2048  -8.2211  -5.1003  -3.2419

          k = 0.1667 0.4330 0.0000 ( 25308 PWs)   bands (ev):

   -24.4063 -24.2891 -24.2024 -24.1114 -24.0304 -23.9185 -23.8349 -23.8330
   -23.8062 -23.7055 -10.9854  -8.5951  -5.2497  -3.0260

          k = 0.1667 0.4811 0.0000 ( 25314 PWs)   bands (ev):

   -24.4170 -24.2932 -24.2016 -24.1132 -24.0228 -23.9265 -23.8359 -23.8313
   -23.7994 -23.6943 -10.7649  -8.9289  -5.3577  -2.8114

          k = 0.1667 0.5292 0.0000 ( 25332 PWs)   bands (ev):

   -24.4235 -24.2958 -24.2011 -24.1143 -24.0173 -23.9322 -23.8366 -23.8302
   -23.7952 -23.6873 -10.5780  -9.1849  -5.4228  -2.6318

          k = 0.1667 0.5774 0.0000 ( 25370 PWs)   bands (ev):

   -24.4258 -24.2967 -24.2008 -24.1147 -24.0152 -23.9343 -23.8368 -23.8298
   -23.7938 -23.6849 -10.4971  -9.2890  -5.4445  -2.5549

          k = 0.2083 0.3608 0.0000 ( 25296 PWs)   bands (ev):

   -24.3931 -24.2781 -24.2061 -24.1093 -24.0385 -23.9098 -23.8351 -23.8288
   -23.8232 -23.7191 -11.2163  -8.1868  -5.1455  -3.2530

          k = 0.2083 0.4090 0.0000 ( 25276 PWs)   bands (ev):

   -24.4095 -24.2788 -24.2080 -24.1120 -24.0291 -23.9197 -23.8325 -23.8296
   -23.8161 -23.7027 -11.0038  -8.5410  -5.3398  -3.0433

          k = 0.2083 0.4571 0.0000 ( 25314 PWs)   bands (ev):

   -24.4222 -24.2796 -24.2092 -24.1142 -24.0198 -23.9293 -23.8311 -23.8303
   -23.8098 -23.6895 -10.7793  -8.8755  -5.4886  -2.8239

          k = 0.2083 0.5052 0.0000 ( 25325 PWs)   bands (ev):

   -24.4308 -24.2804 -24.2098 -24.1157 -24.0118 -23.9375 -23.8323 -23.8289
   -23.8054 -23.6803 -10.5626  -9.1675  -5.5888  -2.6144

          k = 0.2083 0.5533 0.0000 ( 25334 PWs)   bands (ev):

   -24.4352 -24.2808 -24.2101 -24.1165 -24.0069 -23.9426 -23.8330 -23.8281
   -23.8032 -23.6756 -10.4066  -9.3618  -5.6392  -2.4653

          k = 0.2500 0.4330 0.0000 ( 25322 PWs)   bands (ev):

   -24.4239 -24.2741 -24.2127 -24.1146 -24.0187 -23.9304 -23.8300 -23.8277
   -23.8151 -23.6879 -10.7845  -8.8556  -5.5352  -2.8284

          k = 0.2500 0.4811 0.0000 ( 25320 PWs)   bands (ev):

   -24.4345 -24.2701 -24.2167 -24.1165 -24.0085 -23.9408 -23.8282 -23.8280
   -23.8129 -23.6767 -10.5562  -9.1537  -5.6786  -2.6067

          k = 0.2500 0.5292 0.0000 ( 25351 PWs)   bands (ev):

   -24.4410 -24.2674 -24.2194 -24.1178 -24.0000 -23.9495 -23.8286 -23.8270
   -23.8111 -23.6698 -10.3459  -9.4066  -5.7657  -2.4046

          k = 0.2500 0.5774 0.0000 ( 25362 PWs)   bands (ev):

   -24.4431 -24.2664 -24.2204 -24.1182 -23.9963 -23.9532 -23.8289 -23.8266
   -23.8104 -23.6675 -10.2423  -9.5246  -5.7950  -2.3060

          k = 0.2917 0.5052 0.0000 ( 25348 PWs)   bands (ev):

   -24.4429 -24.2611 -24.2243 -24.1182 -23.9971 -23.9524 -23.8266 -23.8259
   -23.8151 -23.6678 -10.3245  -9.4219  -5.8096  -2.3829

          k = 0.2917 0.5533 0.0000 ( 25338 PWs)   bands (ev):

   -24.4472 -24.2545 -24.2302 -24.1190 -23.9875 -23.9620 -23.8258 -23.8248
   -23.8162 -23.6633 -10.1186  -9.6460  -5.8763  -2.1858

          k = 0.3333 0.5774 0.0000 ( 25344 PWs)   bands (ev):

   -24.4493 -24.2420 -24.2420 -24.1195 -23.9748 -23.9748 -23.8254 -23.8207
   -23.8207 -23.6611  -9.8841  -9.8841  -5.9139  -1.9618

     highest occupied level (ev):    -1.9618

!    total energy              =    -326.39037437 Ry
     estimated scf accuracy    <       0.00000052 Ry

     The total energy is the sum of the following terms:
     one-electron contribution =    -882.72156622 Ry
     hartree contribution      =     448.41916147 Ry
     xc contribution           =     -95.06627340 Ry
     ewald contribution        =     202.97830377 Ry

     convergence has been achieved in   6 iterations

     Writing output data file ../tmp/stanene.save/

     init_run     :      6.37s CPU      6.58s WALL (       1 calls)
     electrons    :     96.73s CPU     99.68s WALL (       1 calls)

     Called by init_run:
     wfcinit      :      5.83s CPU      6.03s WALL (       1 calls)
     potinit      :      0.13s CPU      0.13s WALL (       1 calls)
     hinit0       :      0.22s CPU      0.22s WALL (       1 calls)

     Called by electrons:
     c_bands      :     84.72s CPU     86.86s WALL (       6 calls)
     sum_band     :     11.01s CPU     11.61s WALL (       6 calls)
     v_of_rho     :      0.37s CPU      0.37s WALL (       7 calls)
     newd         :      0.73s CPU      0.94s WALL (       7 calls)
     mix_rho      :      0.05s CPU      0.06s WALL (       6 calls)

     Called by c_bands:
     init_us_2    :      1.00s CPU      1.02s WALL (     793 calls)
     cegterg      :     81.06s CPU     83.17s WALL (     366 calls)

     Called by *egterg:
     cdiaghg      :      0.76s CPU      0.76s WALL (    1353 calls)
     h_psi        :     55.89s CPU     58.13s WALL (    1414 calls)
     s_psi        :      4.33s CPU      4.35s WALL (    1414 calls)
     g_psi        :      0.40s CPU      0.40s WALL (     987 calls)

     Called by h_psi:
     h_psi:calbec :      6.99s CPU      7.19s WALL (    1414 calls)
     vloc_psi     :     44.17s CPU     46.16s WALL (    1414 calls)
     add_vuspsi   :      4.49s CPU      4.55s WALL (    1414 calls)

     General routines
     calbec       :      9.07s CPU      9.32s WALL (    1780 calls)
     fft          :      0.24s CPU      0.25s WALL (      77 calls)
     ffts         :      0.01s CPU      0.01s WALL (       6 calls)
     fftw         :     44.79s CPU     46.72s WALL (   38718 calls)

     Parallel routines
     fft_scatt_xy :      5.85s CPU      6.15s WALL (   38801 calls)
     fft_scatt_yz :     22.35s CPU     23.20s WALL (   38801 calls)

     PWSCF        :   1m43.35s CPU   1m46.78s WALL


   This run was terminated on:   0:23:42  20Jan2024            

=------------------------------------------------------------------------------=
   JOB DONE.
=------------------------------------------------------------------------------=
