
     Program PWSCF v.6.7MaX starts on 20Jan2024 at  0:18:11 

     This program is part of the open-source Quantum ESPRESSO suite
     for quantum simulation of materials; please cite
         "P. Giannozzi et al., J. Phys.:Condens. Matter 21 395502 (2009);
         "P. Giannozzi et al., J. Phys.:Condens. Matter 29 465901 (2017);
          URL http://www.quantum-espresso.org", 
     in publications or presentations arising from this work. More details at
     http://www.quantum-espresso.org/quote

     Parallel version (MPI), running on     6 processors

     MPI processes distributed on     1 nodes
     R & G space division:  proc/nbgrp/npool/nimage =       6
     Waiting for input...
     Reading input from standard input

     Current dimensions of program PWSCF are:
     Max number of different atomic species (ntypx) = 10
     Max number of k-points (npk) =  40000
     Max angular momentum in pseudopotentials (lmaxx) =  3

     Subspace diagonalization in iterative solution of the eigenvalue problem:
     one sub-group per band group will be used
     scalapack distributed-memory algorithm (size of sub-group:  2*  2 procs)


     Parallelization info
     --------------------
     sticks:   dense  smooth     PW     G-vecs:    dense   smooth      PW
     Min         108     108     32                 9488     9488    1524
     Max         109     109     34                 9505     9505    1530
     Sum         649     649    199                56963    56963    9161



     bravais-lattice index     =            4
     lattice parameter (alat)  =       8.8439  a.u.
     unit-cell volume          =    2560.0529 (a.u.)^3
     number of atoms/cell      =            2
     number of atomic types    =            1
     number of electrons       =        28.00
     number of Kohn-Sham states=           14
     kinetic-energy cutoff     =      30.0000  Ry
     charge density cutoff     =     120.0000  Ry
     scf convergence threshold =      1.0E-06
     mixing beta               =       0.7000
     number of iterations used =            8  plain     mixing
     Exchange-correlation= SLA  PW   PBE  PBE
                           (   1   4   3   4   0   0   0)

     celldm(1)=   8.843918  celldm(2)=   0.000000  celldm(3)=   4.273504
     celldm(4)=   0.000000  celldm(5)=   0.000000  celldm(6)=   0.000000

     crystal axes: (cart. coord. in units of alat)
               a(1) = (   1.000000   0.000000   0.000000 )  
               a(2) = (  -0.500000   0.866025   0.000000 )  
               a(3) = (   0.000000   0.000000   4.273504 )  

     reciprocal axes: (cart. coord. in units 2 pi/alat)
               b(1) = (  1.000000  0.577350 -0.000000 )  
               b(2) = (  0.000000  1.154701  0.000000 )  
               b(3) = (  0.000000 -0.000000  0.234000 )  


     PseudoPot. # 1 for Sn read from file:
     ../pseudo/Sn_pbe_v1.uspp.F.UPF
     MD5 check sum: 4cf58ce39ec5d5d420df3dd08604eb00
     Pseudo is Ultrasoft + core correction, Zval = 14.0
     Generated by new atomic code, or converted to UPF format
     Using radial grid of  891 points,  6 beta functions with: 
                l(1) =   0
                l(2) =   0
                l(3) =   1
                l(4) =   1
                l(5) =   2
                l(6) =   2
     Q(r) pseudized with  6 coefficients,  rinner =    1.200   1.200   1.200
                                                       1.200   1.200

     atomic species   valence    mass     pseudopotential
        Sn            14.00   118.71000     Sn( 1.00)

     24 Sym. Ops., with inversion, found



   Cartesian axes

     site n.     atom                  positions (alat units)
         1           Sn  tau(   1) = (   0.0000000   0.5773503   2.1367521  )
         2           Sn  tau(   2) = (   0.5000000   0.2886751   2.1367521  )

     number of k points=    61
                       cart. coord. in units 2pi/alat
        k(    1) = (   0.0000000   0.0000000   0.0000000), wk =   0.0034722
        k(    2) = (   0.0000000   0.0481125   0.0000000), wk =   0.0208333
        k(    3) = (   0.0000000   0.0962250   0.0000000), wk =   0.0208333
        k(    4) = (   0.0000000   0.1443376   0.0000000), wk =   0.0208333
        k(    5) = (   0.0000000   0.1924501   0.0000000), wk =   0.0208333
        k(    6) = (   0.0000000   0.2405626   0.0000000), wk =   0.0208333
        k(    7) = (   0.0000000   0.2886751   0.0000000), wk =   0.0208333
        k(    8) = (   0.0000000   0.3367877   0.0000000), wk =   0.0208333
        k(    9) = (   0.0000000   0.3849002   0.0000000), wk =   0.0208333
        k(   10) = (   0.0000000   0.4330127   0.0000000), wk =   0.0208333
        k(   11) = (   0.0000000   0.4811252   0.0000000), wk =   0.0208333
        k(   12) = (   0.0000000   0.5292377   0.0000000), wk =   0.0208333
        k(   13) = (   0.0000000  -0.5773503   0.0000000), wk =   0.0104167
        k(   14) = (   0.0416667   0.0721688   0.0000000), wk =   0.0208333
        k(   15) = (   0.0416667   0.1202813   0.0000000), wk =   0.0416667
        k(   16) = (   0.0416667   0.1683938   0.0000000), wk =   0.0416667
        k(   17) = (   0.0416667   0.2165064   0.0000000), wk =   0.0416667
        k(   18) = (   0.0416667   0.2646189   0.0000000), wk =   0.0416667
        k(   19) = (   0.0416667   0.3127314   0.0000000), wk =   0.0416667
        k(   20) = (   0.0416667   0.3608439   0.0000000), wk =   0.0416667
        k(   21) = (   0.0416667   0.4089564   0.0000000), wk =   0.0416667
        k(   22) = (   0.0416667   0.4570690   0.0000000), wk =   0.0416667
        k(   23) = (   0.0416667   0.5051815   0.0000000), wk =   0.0416667
        k(   24) = (   0.0416667   0.5532940   0.0000000), wk =   0.0416667
        k(   25) = (   0.0833333   0.1443376   0.0000000), wk =   0.0208333
        k(   26) = (   0.0833333   0.1924501   0.0000000), wk =   0.0416667
        k(   27) = (   0.0833333   0.2405626   0.0000000), wk =   0.0416667
        k(   28) = (   0.0833333   0.2886751   0.0000000), wk =   0.0416667
        k(   29) = (   0.0833333   0.3367877   0.0000000), wk =   0.0416667
        k(   30) = (   0.0833333   0.3849002   0.0000000), wk =   0.0416667
        k(   31) = (   0.0833333   0.4330127   0.0000000), wk =   0.0416667
        k(   32) = (   0.0833333   0.4811252   0.0000000), wk =   0.0416667
        k(   33) = (   0.0833333   0.5292377   0.0000000), wk =   0.0416667
        k(   34) = (   0.0833333   0.5773503   0.0000000), wk =   0.0208333
        k(   35) = (   0.1250000   0.2165064   0.0000000), wk =   0.0208333
        k(   36) = (   0.1250000   0.2646189   0.0000000), wk =   0.0416667
        k(   37) = (   0.1250000   0.3127314   0.0000000), wk =   0.0416667
        k(   38) = (   0.1250000   0.3608439   0.0000000), wk =   0.0416667
        k(   39) = (   0.1250000   0.4089564   0.0000000), wk =   0.0416667
        k(   40) = (   0.1250000   0.4570690   0.0000000), wk =   0.0416667
        k(   41) = (   0.1250000   0.5051815   0.0000000), wk =   0.0416667
        k(   42) = (   0.1250000   0.5532940   0.0000000), wk =   0.0416667
        k(   43) = (   0.1666667   0.2886751   0.0000000), wk =   0.0208333
        k(   44) = (   0.1666667   0.3367877   0.0000000), wk =   0.0416667
        k(   45) = (   0.1666667   0.3849002   0.0000000), wk =   0.0416667
        k(   46) = (   0.1666667   0.4330127   0.0000000), wk =   0.0416667
        k(   47) = (   0.1666667   0.4811252   0.0000000), wk =   0.0416667
        k(   48) = (   0.1666667   0.5292377   0.0000000), wk =   0.0416667
        k(   49) = (   0.1666667   0.5773503   0.0000000), wk =   0.0208333
        k(   50) = (   0.2083333   0.3608439   0.0000000), wk =   0.0208333
        k(   51) = (   0.2083333   0.4089564   0.0000000), wk =   0.0416667
        k(   52) = (   0.2083333   0.4570690   0.0000000), wk =   0.0416667
        k(   53) = (   0.2083333   0.5051815   0.0000000), wk =   0.0416667
        k(   54) = (   0.2083333   0.5532940   0.0000000), wk =   0.0416667
        k(   55) = (   0.2500000   0.4330127   0.0000000), wk =   0.0208333
        k(   56) = (   0.2500000   0.4811252   0.0000000), wk =   0.0416667
        k(   57) = (   0.2500000   0.5292377   0.0000000), wk =   0.0416667
        k(   58) = (   0.2500000   0.5773503   0.0000000), wk =   0.0208333
        k(   59) = (   0.2916667   0.5051815   0.0000000), wk =   0.0208333
        k(   60) = (   0.2916667   0.5532940   0.0000000), wk =   0.0416667
        k(   61) = (   0.3333333   0.5773503   0.0000000), wk =   0.0069444

     Dense  grid:    56963 G-vectors     FFT dimensions: (  32,  32, 135)

     Estimated max dynamical RAM per process >      50.02 MB

     Estimated total dynamical RAM >     300.11 MB

     Check: negative core charge=   -0.000001

     Initial potential from superposition of free atoms

     starting charge   25.99991, renormalised to   28.00000

     negative rho (up, down):  2.381E-03 0.000E+00
     Starting wfcs are   18 randomized atomic wfcs

     total cpu time spent up to now is        1.4 secs

     Self-consistent Calculation

     iteration #  1     ecut=    30.00 Ry     beta= 0.70
     Davidson diagonalization with overlap
     ethr =  1.00E-02,  avg # of iterations =  2.0

     negative rho (up, down):  1.198E-03 0.000E+00

     total cpu time spent up to now is        6.0 secs

     total energy              =    -325.47213151 Ry
     estimated scf accuracy    <       2.43509659 Ry

     iteration #  2     ecut=    30.00 Ry     beta= 0.70
     Davidson diagonalization with overlap
     ethr =  8.70E-03,  avg # of iterations =  2.0

     negative rho (up, down):  1.337E-03 0.000E+00

     total cpu time spent up to now is       10.3 secs

     total energy              =    -326.33782183 Ry
     estimated scf accuracy    <       0.31293654 Ry

     iteration #  3     ecut=    30.00 Ry     beta= 0.70
     Davidson diagonalization with overlap
     ethr =  1.12E-03,  avg # of iterations =  2.1

     negative rho (up, down):  1.509E-03 0.000E+00

     total cpu time spent up to now is       14.3 secs

     total energy              =    -326.38387505 Ry
     estimated scf accuracy    <       0.00548101 Ry

     iteration #  4     ecut=    30.00 Ry     beta= 0.70
     Davidson diagonalization with overlap
     ethr =  1.96E-05,  avg # of iterations =  3.0

     negative rho (up, down):  1.472E-03 0.000E+00

     total cpu time spent up to now is       18.4 secs

     total energy              =    -326.38608965 Ry
     estimated scf accuracy    <       0.00073961 Ry

     iteration #  5     ecut=    30.00 Ry     beta= 0.70
     Davidson diagonalization with overlap
     ethr =  2.64E-06,  avg # of iterations =  2.3

     negative rho (up, down):  1.453E-03 0.000E+00

     total cpu time spent up to now is       22.8 secs

     End of self-consistent calculation

          k = 0.0000 0.0000 0.0000 (  7139 PWs)   bands (ev):

   -24.2016 -24.2015 -24.2015 -24.0886 -24.0886 -23.9378 -23.9378 -23.8570
   -23.8570 -23.7926 -12.2881  -4.3389  -3.4271  -3.4271

          k = 0.0000 0.0481 0.0000 (  7145 PWs)   bands (ev):

   -24.2062 -24.2061 -24.2012 -24.0890 -24.0879 -23.9334 -23.9327 -23.8578
   -23.8566 -23.7925 -12.2733  -4.3235  -4.2015  -3.4607

          k = 0.0000 0.0962 0.0000 (  7129 PWs)   bands (ev):

   -24.2187 -24.2186 -24.2002 -24.0901 -24.0859 -23.9214 -23.9188 -23.8601
   -23.8555 -23.7921 -12.2288  -4.7814  -4.2775  -3.5548

          k = 0.0000 0.1443 0.0000 (  7121 PWs)   bands (ev):

   -24.2367 -24.2365 -24.1986 -24.0919 -24.0826 -23.9047 -23.8987 -23.8639
   -23.8537 -23.7911 -12.1550  -5.3624  -4.2013  -3.6924

          k = 0.0000 0.1925 0.0000 (  7115 PWs)   bands (ev):

   -24.2573 -24.2572 -24.1965 -24.0941 -24.0781 -23.8866 -23.8754 -23.8690
   -23.8515 -23.7888 -12.0522  -5.9323  -4.0955  -3.8544

          k = 0.0000 0.2406 0.0000 (  7101 PWs)   bands (ev):

   -24.2788 -24.2784 -24.1940 -24.0967 -24.0726 -23.8752 -23.8700 -23.8510
   -23.8489 -23.7843 -11.9211  -6.4848  -4.0241  -3.9614

          k = 0.0000 0.2887 0.0000 (  7087 PWs)   bands (ev):

   -24.2996 -24.2987 -24.1913 -24.0994 -24.0662 -23.8823 -23.8573 -23.8462
   -23.8272 -23.7767 -11.7628  -7.0147  -4.1888  -3.8007

          k = 0.0000 0.3368 0.0000 (  7079 PWs)   bands (ev):

   -24.3186 -24.3172 -24.1886 -24.1020 -24.0594 -23.8900 -23.8493 -23.8436
   -23.8053 -23.7662 -11.5796  -7.5168  -4.3393  -3.6161

          k = 0.0000 0.3849 0.0000 (  7074 PWs)   bands (ev):

   -24.3351 -24.3331 -24.1860 -24.1045 -24.0524 -23.8976 -23.8450 -23.8412
   -23.7862 -23.7546 -11.3755  -7.9848  -4.4693  -3.4124

          k = 0.0000 0.4330 0.0000 (  7102 PWs)   bands (ev):

   -24.3484 -24.3459 -24.1838 -24.1065 -24.0458 -23.9049 -23.8431 -23.8391
   -23.7706 -23.7437 -11.1584  -8.4090  -4.5743  -3.1981

          k = 0.0000 0.4811 0.0000 (  7100 PWs)   bands (ev):

   -24.3583 -24.3553 -24.1821 -24.1081 -24.0403 -23.9109 -23.8424 -23.8376
   -23.7591 -23.7350 -10.9450  -8.7712  -4.6512  -2.9900

          k = 0.0000 0.5292 0.0000 (  7108 PWs)   bands (ev):

   -24.3642 -24.3610 -24.1810 -24.1090 -24.0365 -23.9149 -23.8422 -23.8366
   -23.7520 -23.7294 -10.7714  -9.0345  -4.6981  -2.8230

          k = 0.0000-0.5774 0.0000 (  7118 PWs)   bands (ev):

   -24.3662 -24.3629 -24.1806 -24.1094 -24.0352 -23.9164 -23.8422 -23.8363
   -23.7496 -23.7275 -10.6999  -9.1360  -4.7138  -2.7550

          k = 0.0417 0.0722 0.0000 (  7139 PWs)   bands (ev):

   -24.2175 -24.2111 -24.2013 -24.0898 -24.0865 -23.9252 -23.9232 -23.8593
   -23.8558 -23.7922 -12.2436  -4.6242  -4.2928  -3.5282

          k = 0.0417 0.1203 0.0000 (  7131 PWs)   bands (ev):

   -24.2352 -24.2232 -24.2005 -24.0912 -24.0838 -23.9111 -23.9062 -23.8624
   -23.8544 -23.7915 -12.1845  -5.1545  -4.2317  -3.6527

          k = 0.0417 0.1684 0.0000 (  7123 PWs)   bands (ev):

   -24.2566 -24.2399 -24.1988 -24.0933 -24.0799 -23.8937 -23.8849 -23.8669
   -23.8523 -23.7898 -12.0962  -5.7043  -4.1407  -3.8125

          k = 0.0417 0.2165 0.0000 (  7110 PWs)   bands (ev):

   -24.2793 -24.2587 -24.1965 -24.0957 -24.0748 -23.8763 -23.8727 -23.8618
   -23.8499 -23.7861 -11.9791  -6.2501  -4.0207  -3.9876

          k = 0.0417 0.2646 0.0000 (  7091 PWs)   bands (ev):

   -24.3018 -24.2777 -24.1939 -24.0984 -24.0688 -23.8794 -23.8617 -23.8472
   -23.8388 -23.7794 -11.8343  -6.7811  -4.1627  -3.8731

          k = 0.0417 0.3127 0.0000 (  7083 PWs)   bands (ev):

   -24.3227 -24.2957 -24.1912 -24.1012 -24.0620 -23.8869 -23.8515 -23.8445
   -23.8174 -23.7691 -11.6633  -7.2902  -4.3267  -3.7002

          k = 0.0417 0.3608 0.0000 (  7083 PWs)   bands (ev):

   -24.3412 -24.3117 -24.1885 -24.1038 -24.0550 -23.8947 -23.8458 -23.8419
   -23.7984 -23.7565 -11.4690  -7.7709  -4.4720  -3.5053

          k = 0.0417 0.4090 0.0000 (  7094 PWs)   bands (ev):

   -24.3567 -24.3252 -24.1861 -24.1060 -24.0480 -23.9024 -23.8431 -23.8396
   -23.7825 -23.7437 -11.2569  -8.2149  -4.5933  -3.2948

          k = 0.0417 0.4571 0.0000 (  7091 PWs)   bands (ev):

   -24.3687 -24.3357 -24.1841 -24.1079 -24.0417 -23.9092 -23.8420 -23.8378
   -23.7701 -23.7327 -11.0383  -8.6089  -4.6869  -3.0804

          k = 0.0417 0.5052 0.0000 (  7111 PWs)   bands (ev):

   -24.3769 -24.3429 -24.1826 -24.1092 -24.0369 -23.9144 -23.8417 -23.8366
   -23.7616 -23.7248 -10.8380  -8.9269  -4.7505  -2.8864

          k = 0.0417 0.5533 0.0000 (  7110 PWs)   bands (ev):

   -24.3810 -24.3465 -24.1819 -24.1098 -24.0342 -23.9173 -23.8417 -23.8359
   -23.7573 -23.7206 -10.7061  -9.1179  -4.7827  -2.7603

          k = 0.0833 0.1443 0.0000 (  7121 PWs)   bands (ev):

   -24.2564 -24.2325 -24.2008 -24.0930 -24.0804 -23.8964 -23.8882 -23.8663
   -23.8526 -23.7901 -12.1109  -5.6188  -4.1558  -3.8119

          k = 0.0833 0.1925 0.0000 (  7105 PWs)   bands (ev):

   -24.2797 -24.2459 -24.1999 -24.0954 -24.0758 -23.8799 -23.8715 -23.8679
   -23.8502 -23.7867 -12.0082  -6.1154  -4.0504  -4.0019

          k = 0.0833 0.2406 0.0000 (  7089 PWs)   bands (ev):

   -24.3034 -24.2612 -24.1981 -24.0981 -24.0700 -23.8779 -23.8641 -23.8479
   -23.8476 -23.7801 -11.8773  -6.6181  -4.1990  -3.9168

          k = 0.0833 0.2887 0.0000 (  7094 PWs)   bands (ev):

   -24.3259 -24.2768 -24.1958 -24.1009 -24.0633 -23.8853 -23.8521 -23.8448
   -23.8295 -23.7693 -11.7193  -7.1128  -4.3876  -3.7566

          k = 0.0833 0.3368 0.0000 (  7097 PWs)   bands (ev):

   -24.3464 -24.2915 -24.1932 -24.1037 -24.0561 -23.8933 -23.8449 -23.8421
   -23.8128 -23.7551 -11.5363  -7.5895  -4.5577  -3.5724

          k = 0.0833 0.3849 0.0000 (  7095 PWs)   bands (ev):

   -24.3641 -24.3044 -24.1908 -24.1062 -24.0487 -23.9014 -23.8416 -23.8396
   -23.7979 -23.7401 -11.3321  -8.0394  -4.7029  -3.3689

          k = 0.0833 0.4330 0.0000 (  7107 PWs)   bands (ev):

   -24.3783 -24.3150 -24.1886 -24.1084 -24.0416 -23.9090 -23.8404 -23.8374
   -23.7856 -23.7266 -11.1143  -8.4515  -4.8192  -3.1540

          k = 0.0833 0.4811 0.0000 (  7098 PWs)   bands (ev):

   -24.3888 -24.3228 -24.1869 -24.1100 -24.0355 -23.9155 -23.8401 -23.8358
   -23.7764 -23.7161 -10.8992  -8.8069  -4.9038  -2.9443

          k = 0.0833 0.5292 0.0000 (  7100 PWs)   bands (ev):

   -24.3951 -24.3276 -24.1858 -24.1110 -24.0314 -23.9200 -23.8402 -23.8349
   -23.7708 -23.7096 -10.7226  -9.0683  -4.9552  -2.7744

          k = 0.0833 0.5774 0.0000 (  7090 PWs)   bands (ev):

   -24.3973 -24.3292 -24.1854 -24.1114 -24.0299 -23.9215 -23.8403 -23.8345
   -23.7689 -23.7073 -10.6492  -9.1701  -4.9724  -2.7046

          k = 0.1250 0.2165 0.0000 (  7095 PWs)   bands (ev):

   -24.3039 -24.2545 -24.2005 -24.0980 -24.0703 -23.8775 -23.8648 -23.8514
   -23.8477 -23.7803 -11.8917  -6.5585  -4.2224  -3.9314

          k = 0.1250 0.2646 0.0000 (  7090 PWs)   bands (ev):

   -24.3276 -24.2651 -24.2000 -24.1009 -24.0638 -23.8847 -23.8511 -23.8448
   -23.8377 -23.7690 -11.7475  -7.0126  -4.4443  -3.7849

          k = 0.1250 0.3127 0.0000 (  7100 PWs)   bands (ev):

   -24.3496 -24.2762 -24.1986 -24.1039 -24.0565 -23.8927 -23.8420 -23.8419
   -23.8250 -23.7536 -11.5770  -7.4640  -4.6498  -3.6130

          k = 0.1250 0.3608 0.0000 (  7093 PWs)   bands (ev):

   -24.3691 -24.2868 -24.1968 -24.1067 -24.0486 -23.9012 -23.8392 -23.8382
   -23.8121 -23.7369 -11.3829  -7.9018  -4.8291  -3.4189

          k = 0.1250 0.4090 0.0000 (  7098 PWs)   bands (ev):

   -24.3854 -24.2961 -24.1949 -24.1092 -24.0407 -23.9097 -23.8371 -23.8368
   -23.8005 -23.7213 -11.1703  -8.3153  -4.9766  -3.2082

          k = 0.1250 0.4571 0.0000 (  7109 PWs)   bands (ev):

   -24.3980 -24.3036 -24.1932 -24.1112 -24.0334 -23.9174 -23.8372 -23.8348
   -23.7911 -23.7086 -10.9495  -8.6899  -5.0891  -2.9919

          k = 0.1250 0.5052 0.0000 (  7109 PWs)   bands (ev):

   -24.4066 -24.3087 -24.1920 -24.1126 -24.0276 -23.9236 -23.8376 -23.8335
   -23.7845 -23.6996 -10.7441  -8.9993  -5.1650  -2.7931

          k = 0.1250 0.5533 0.0000 (  7097 PWs)   bands (ev):

   -24.4110 -24.3114 -24.1913 -24.1133 -24.0243 -23.9271 -23.8379 -23.8328
   -23.7812 -23.6949 -10.6059  -9.1900  -5.2031  -2.6609

          k = 0.1667 0.2887 0.0000 (  7094 PWs)   bands (ev):

   -24.3507 -24.2701 -24.2013 -24.1040 -24.0565 -23.8925 -23.8419 -23.8385
   -23.8318 -23.7531 -11.5906  -7.4185  -4.6881  -3.6266

          k = 0.1667 0.3368 0.0000 (  7097 PWs)   bands (ev):

   -24.3717 -24.2759 -24.2017 -24.1071 -24.0484 -23.9013 -23.8389 -23.8324
   -23.8237 -23.7352 -11.4085  -7.8246  -4.9096  -3.4441

          k = 0.1667 0.3849 0.0000 (  7103 PWs)   bands (ev):

   -24.3897 -24.2818 -24.2013 -24.1099 -24.0398 -23.9104 -23.8362 -23.8320
   -23.8131 -23.7179 -11.2045  -8.2206  -5.0979  -3.2414

          k = 0.1667 0.4330 0.0000 (  7100 PWs)   bands (ev):

   -24.4043 -24.2871 -24.2006 -24.1122 -24.0313 -23.9194 -23.8339 -23.8328
   -23.8040 -23.7032 -10.9851  -8.5947  -5.2473  -3.0255

          k = 0.1667 0.4811 0.0000 (  7114 PWs)   bands (ev):

   -24.4151 -24.2913 -24.1998 -24.1140 -24.0236 -23.9274 -23.8338 -23.8322
   -23.7972 -23.6919 -10.7646  -8.9284  -5.3553  -2.8108

          k = 0.1667 0.5292 0.0000 (  7107 PWs)   bands (ev):

   -24.4216 -24.2939 -24.1992 -24.1152 -24.0181 -23.9331 -23.8345 -23.8311
   -23.7929 -23.6849 -10.5777  -9.1845  -5.4204  -2.6310

          k = 0.1667 0.5774 0.0000 (  7114 PWs)   bands (ev):

   -24.4238 -24.2948 -24.1990 -24.1155 -24.0161 -23.9352 -23.8348 -23.8307
   -23.7915 -23.6826 -10.4968  -9.2885  -5.4421  -2.5541

          k = 0.2083 0.3608 0.0000 (  7102 PWs)   bands (ev):

   -24.3912 -24.2762 -24.2043 -24.1101 -24.0394 -23.9107 -23.8360 -23.8268
   -23.8210 -23.7168 -11.2160  -8.1863  -5.1430  -3.2526

          k = 0.2083 0.4090 0.0000 (  7104 PWs)   bands (ev):

   -24.4075 -24.2768 -24.2062 -24.1128 -24.0299 -23.9206 -23.8334 -23.8275
   -23.8138 -23.7004 -11.0034  -8.5405  -5.3374  -3.0428

          k = 0.2083 0.4571 0.0000 (  7088 PWs)   bands (ev):

   -24.4202 -24.2777 -24.2073 -24.1150 -24.0207 -23.9302 -23.8313 -23.8290
   -23.8076 -23.6872 -10.7790  -8.8751  -5.4862  -2.8233

          k = 0.2083 0.5052 0.0000 (  7091 PWs)   bands (ev):

   -24.4288 -24.2785 -24.2080 -24.1166 -24.0127 -23.9384 -23.8302 -23.8298
   -23.8032 -23.6780 -10.5623  -9.1671  -5.5865  -2.6137

          k = 0.2083 0.5533 0.0000 (  7109 PWs)   bands (ev):

   -24.4332 -24.2789 -24.2082 -24.1174 -24.0078 -23.9435 -23.8309 -23.8290
   -23.8010 -23.6732 -10.4063  -9.3613  -5.6368  -2.4645

          k = 0.2500 0.4330 0.0000 (  7090 PWs)   bands (ev):

   -24.4219 -24.2721 -24.2108 -24.1154 -24.0196 -23.9313 -23.8309 -23.8257
   -23.8129 -23.6855 -10.7841  -8.8552  -5.5329  -2.8278

          k = 0.2500 0.4811 0.0000 (  7098 PWs)   bands (ev):

   -24.4325 -24.2682 -24.2148 -24.1174 -24.0094 -23.9417 -23.8291 -23.8259
   -23.8107 -23.6744 -10.5559  -9.1533  -5.6762  -2.6061

          k = 0.2500 0.5292 0.0000 (  7101 PWs)   bands (ev):

   -24.4390 -24.2655 -24.2176 -24.1186 -24.0008 -23.9504 -23.8279 -23.8266
   -23.8089 -23.6674 -10.3456  -9.4062  -5.7634  -2.4038

          k = 0.2500 0.5774 0.0000 (  7112 PWs)   bands (ev):

   -24.4412 -24.2645 -24.2186 -24.1190 -23.9972 -23.9541 -23.8275 -23.8269
   -23.8083 -23.6651 -10.2420  -9.5242  -5.7926  -2.3052

          k = 0.2917 0.5052 0.0000 (  7102 PWs)   bands (ev):

   -24.4409 -24.2592 -24.2224 -24.1190 -23.9980 -23.9533 -23.8275 -23.8238
   -23.8129 -23.6655 -10.3242  -9.4215  -5.8072  -2.3822

          k = 0.2917 0.5533 0.0000 (  7100 PWs)   bands (ev):

   -24.4452 -24.2526 -24.2284 -24.1199 -23.9884 -23.9629 -23.8267 -23.8227
   -23.8141 -23.6609 -10.1182  -9.6456  -5.8739  -2.1849

          k = 0.3333 0.5774 0.0000 (  7128 PWs)   bands (ev):

   -24.4473 -24.2401 -24.2401 -24.1204 -23.9757 -23.9757 -23.8263 -23.8186
   -23.8186 -23.6587  -9.8838  -9.8838  -5.9115  -1.9610

     highest occupied level (ev):    -1.9610

!    total energy              =    -326.38625621 Ry
     estimated scf accuracy    <       0.00000081 Ry

     The total energy is the sum of the following terms:
     one-electron contribution =    -882.68963697 Ry
     hartree contribution      =     448.39054236 Ry
     xc contribution           =     -95.06546535 Ry
     ewald contribution        =     202.97830375 Ry

     convergence has been achieved in   5 iterations

     Writing output data file ../tmp/stanene.save/

     init_run     :      1.26s CPU      1.34s WALL (       1 calls)
     electrons    :     20.77s CPU     21.39s WALL (       1 calls)

     Called by init_run:
     wfcinit      :      1.05s CPU      1.11s WALL (       1 calls)
     potinit      :      0.03s CPU      0.04s WALL (       1 calls)
     hinit0       :      0.10s CPU      0.10s WALL (       1 calls)

     Called by electrons:
     c_bands      :     18.11s CPU     18.61s WALL (       5 calls)
     sum_band     :      2.37s CPU      2.49s WALL (       5 calls)
     v_of_rho     :      0.07s CPU      0.08s WALL (       6 calls)
     newd         :      0.23s CPU      0.24s WALL (       6 calls)
     mix_rho      :      0.01s CPU      0.01s WALL (       5 calls)

     Called by c_bands:
     init_us_2    :      0.23s CPU      0.24s WALL (     671 calls)
     cegterg      :     17.19s CPU     17.69s WALL (     305 calls)

     Called by *egterg:
     cdiaghg      :      0.54s CPU      0.55s WALL (    1002 calls)
     h_psi        :     11.13s CPU     11.57s WALL (    1063 calls)
     s_psi        :      1.00s CPU      1.03s WALL (    1063 calls)
     g_psi        :      0.09s CPU      0.09s WALL (     697 calls)

     Called by h_psi:
     h_psi:calbec :      1.52s CPU      1.58s WALL (    1063 calls)
     vloc_psi     :      8.57s CPU      8.90s WALL (    1063 calls)
     add_vuspsi   :      1.00s CPU      1.04s WALL (    1063 calls)

     General routines
     calbec       :      2.00s CPU      2.09s WALL (    1368 calls)
     fft          :      0.08s CPU      0.09s WALL (      66 calls)
     ffts         :      0.00s CPU      0.00s WALL (       5 calls)
     fftw         :      9.12s CPU      9.49s WALL (   32288 calls)

     Parallel routines
     fft_scatt_xy :      0.87s CPU      0.91s WALL (   32359 calls)
     fft_scatt_yz :      5.89s CPU      6.10s WALL (   32359 calls)

     PWSCF        :     22.21s CPU     22.98s WALL


   This run was terminated on:   0:18:34  20Jan2024            

=------------------------------------------------------------------------------=
   JOB DONE.
=------------------------------------------------------------------------------=
