
     Program PWSCF v.6.7MaX starts on 20Jan2024 at  0:19:33 

     This program is part of the open-source Quantum ESPRESSO suite
     for quantum simulation of materials; please cite
         "P. Giannozzi et al., J. Phys.:Condens. Matter 21 395502 (2009);
         "P. Giannozzi et al., J. Phys.:Condens. Matter 29 465901 (2017);
          URL http://www.quantum-espresso.org", 
     in publications or presentations arising from this work. More details at
     http://www.quantum-espresso.org/quote

     Parallel version (MPI), running on     6 processors

     MPI processes distributed on     1 nodes
     R & G space division:  proc/nbgrp/npool/nimage =       6
     Waiting for input...
     Reading input from standard input

     Current dimensions of program PWSCF are:
     Max number of different atomic species (ntypx) = 10
     Max number of k-points (npk) =  40000
     Max angular momentum in pseudopotentials (lmaxx) =  3

     Subspace diagonalization in iterative solution of the eigenvalue problem:
     one sub-group per band group will be used
     scalapack distributed-memory algorithm (size of sub-group:  2*  2 procs)


     Parallelization info
     --------------------
     sticks:   dense  smooth     PW     G-vecs:    dense   smooth      PW
     Min         178     178     51                20362    20362    3102
     Max         179     179     53                20385    20385    3105
     Sum        1069    1069    313               122211   122211   18619



     bravais-lattice index     =            4
     lattice parameter (alat)  =       8.8439  a.u.
     unit-cell volume          =    2560.0529 (a.u.)^3
     number of atoms/cell      =            2
     number of atomic types    =            1
     number of electrons       =        28.00
     number of Kohn-Sham states=           14
     kinetic-energy cutoff     =      50.0000  Ry
     charge density cutoff     =     200.0000  Ry
     scf convergence threshold =      1.0E-06
     mixing beta               =       0.7000
     number of iterations used =            8  plain     mixing
     Exchange-correlation= SLA  PW   PBE  PBE
                           (   1   4   3   4   0   0   0)

     celldm(1)=   8.843918  celldm(2)=   0.000000  celldm(3)=   4.273504
     celldm(4)=   0.000000  celldm(5)=   0.000000  celldm(6)=   0.000000

     crystal axes: (cart. coord. in units of alat)
               a(1) = (   1.000000   0.000000   0.000000 )  
               a(2) = (  -0.500000   0.866025   0.000000 )  
               a(3) = (   0.000000   0.000000   4.273504 )  

     reciprocal axes: (cart. coord. in units 2 pi/alat)
               b(1) = (  1.000000  0.577350 -0.000000 )  
               b(2) = (  0.000000  1.154701  0.000000 )  
               b(3) = (  0.000000 -0.000000  0.234000 )  


     PseudoPot. # 1 for Sn read from file:
     ../pseudo/Sn_pbe_v1.uspp.F.UPF
     MD5 check sum: 4cf58ce39ec5d5d420df3dd08604eb00
     Pseudo is Ultrasoft + core correction, Zval = 14.0
     Generated by new atomic code, or converted to UPF format
     Using radial grid of  891 points,  6 beta functions with: 
                l(1) =   0
                l(2) =   0
                l(3) =   1
                l(4) =   1
                l(5) =   2
                l(6) =   2
     Q(r) pseudized with  6 coefficients,  rinner =    1.200   1.200   1.200
                                                       1.200   1.200

     atomic species   valence    mass     pseudopotential
        Sn            14.00   118.71000     Sn( 1.00)

     24 Sym. Ops., with inversion, found



   Cartesian axes

     site n.     atom                  positions (alat units)
         1           Sn  tau(   1) = (   0.0000000   0.5773503   2.1367521  )
         2           Sn  tau(   2) = (   0.5000000   0.2886751   2.1367521  )

     number of k points=    61
                       cart. coord. in units 2pi/alat
        k(    1) = (   0.0000000   0.0000000   0.0000000), wk =   0.0034722
        k(    2) = (   0.0000000   0.0481125   0.0000000), wk =   0.0208333
        k(    3) = (   0.0000000   0.0962250   0.0000000), wk =   0.0208333
        k(    4) = (   0.0000000   0.1443376   0.0000000), wk =   0.0208333
        k(    5) = (   0.0000000   0.1924501   0.0000000), wk =   0.0208333
        k(    6) = (   0.0000000   0.2405626   0.0000000), wk =   0.0208333
        k(    7) = (   0.0000000   0.2886751   0.0000000), wk =   0.0208333
        k(    8) = (   0.0000000   0.3367877   0.0000000), wk =   0.0208333
        k(    9) = (   0.0000000   0.3849002   0.0000000), wk =   0.0208333
        k(   10) = (   0.0000000   0.4330127   0.0000000), wk =   0.0208333
        k(   11) = (   0.0000000   0.4811252   0.0000000), wk =   0.0208333
        k(   12) = (   0.0000000   0.5292377   0.0000000), wk =   0.0208333
        k(   13) = (   0.0000000  -0.5773503   0.0000000), wk =   0.0104167
        k(   14) = (   0.0416667   0.0721688   0.0000000), wk =   0.0208333
        k(   15) = (   0.0416667   0.1202813   0.0000000), wk =   0.0416667
        k(   16) = (   0.0416667   0.1683938   0.0000000), wk =   0.0416667
        k(   17) = (   0.0416667   0.2165064   0.0000000), wk =   0.0416667
        k(   18) = (   0.0416667   0.2646189   0.0000000), wk =   0.0416667
        k(   19) = (   0.0416667   0.3127314   0.0000000), wk =   0.0416667
        k(   20) = (   0.0416667   0.3608439   0.0000000), wk =   0.0416667
        k(   21) = (   0.0416667   0.4089564   0.0000000), wk =   0.0416667
        k(   22) = (   0.0416667   0.4570690   0.0000000), wk =   0.0416667
        k(   23) = (   0.0416667   0.5051815   0.0000000), wk =   0.0416667
        k(   24) = (   0.0416667   0.5532940   0.0000000), wk =   0.0416667
        k(   25) = (   0.0833333   0.1443376   0.0000000), wk =   0.0208333
        k(   26) = (   0.0833333   0.1924501   0.0000000), wk =   0.0416667
        k(   27) = (   0.0833333   0.2405626   0.0000000), wk =   0.0416667
        k(   28) = (   0.0833333   0.2886751   0.0000000), wk =   0.0416667
        k(   29) = (   0.0833333   0.3367877   0.0000000), wk =   0.0416667
        k(   30) = (   0.0833333   0.3849002   0.0000000), wk =   0.0416667
        k(   31) = (   0.0833333   0.4330127   0.0000000), wk =   0.0416667
        k(   32) = (   0.0833333   0.4811252   0.0000000), wk =   0.0416667
        k(   33) = (   0.0833333   0.5292377   0.0000000), wk =   0.0416667
        k(   34) = (   0.0833333   0.5773503   0.0000000), wk =   0.0208333
        k(   35) = (   0.1250000   0.2165064   0.0000000), wk =   0.0208333
        k(   36) = (   0.1250000   0.2646189   0.0000000), wk =   0.0416667
        k(   37) = (   0.1250000   0.3127314   0.0000000), wk =   0.0416667
        k(   38) = (   0.1250000   0.3608439   0.0000000), wk =   0.0416667
        k(   39) = (   0.1250000   0.4089564   0.0000000), wk =   0.0416667
        k(   40) = (   0.1250000   0.4570690   0.0000000), wk =   0.0416667
        k(   41) = (   0.1250000   0.5051815   0.0000000), wk =   0.0416667
        k(   42) = (   0.1250000   0.5532940   0.0000000), wk =   0.0416667
        k(   43) = (   0.1666667   0.2886751   0.0000000), wk =   0.0208333
        k(   44) = (   0.1666667   0.3367877   0.0000000), wk =   0.0416667
        k(   45) = (   0.1666667   0.3849002   0.0000000), wk =   0.0416667
        k(   46) = (   0.1666667   0.4330127   0.0000000), wk =   0.0416667
        k(   47) = (   0.1666667   0.4811252   0.0000000), wk =   0.0416667
        k(   48) = (   0.1666667   0.5292377   0.0000000), wk =   0.0416667
        k(   49) = (   0.1666667   0.5773503   0.0000000), wk =   0.0208333
        k(   50) = (   0.2083333   0.3608439   0.0000000), wk =   0.0208333
        k(   51) = (   0.2083333   0.4089564   0.0000000), wk =   0.0416667
        k(   52) = (   0.2083333   0.4570690   0.0000000), wk =   0.0416667
        k(   53) = (   0.2083333   0.5051815   0.0000000), wk =   0.0416667
        k(   54) = (   0.2083333   0.5532940   0.0000000), wk =   0.0416667
        k(   55) = (   0.2500000   0.4330127   0.0000000), wk =   0.0208333
        k(   56) = (   0.2500000   0.4811252   0.0000000), wk =   0.0416667
        k(   57) = (   0.2500000   0.5292377   0.0000000), wk =   0.0416667
        k(   58) = (   0.2500000   0.5773503   0.0000000), wk =   0.0208333
        k(   59) = (   0.2916667   0.5051815   0.0000000), wk =   0.0208333
        k(   60) = (   0.2916667   0.5532940   0.0000000), wk =   0.0416667
        k(   61) = (   0.3333333   0.5773503   0.0000000), wk =   0.0069444

     Dense  grid:   122211 G-vectors     FFT dimensions: (  40,  40, 180)

     Estimated max dynamical RAM per process >     106.46 MB

     Estimated total dynamical RAM >     638.74 MB

     Initial potential from superposition of free atoms

     starting charge   25.99991, renormalised to   28.00000

     negative rho (up, down):  4.441E-03 0.000E+00
     Starting wfcs are   18 randomized atomic wfcs

     total cpu time spent up to now is        3.4 secs

     Self-consistent Calculation

     iteration #  1     ecut=    50.00 Ry     beta= 0.70
     Davidson diagonalization with overlap
     ethr =  1.00E-02,  avg # of iterations =  2.0

     negative rho (up, down):  3.400E-03 0.000E+00

     total cpu time spent up to now is       12.0 secs

     total energy              =    -325.49314268 Ry
     estimated scf accuracy    <       2.41341028 Ry

     iteration #  2     ecut=    50.00 Ry     beta= 0.70
     Davidson diagonalization with overlap
     ethr =  8.62E-03,  avg # of iterations =  2.0

     negative rho (up, down):  3.786E-03 0.000E+00

     total cpu time spent up to now is       21.1 secs

     total energy              =    -326.34661452 Ry
     estimated scf accuracy    <       0.29464710 Ry

     iteration #  3     ecut=    50.00 Ry     beta= 0.70
     Davidson diagonalization with overlap
     ethr =  1.05E-03,  avg # of iterations =  2.1

     negative rho (up, down):  4.041E-03 0.000E+00

     total cpu time spent up to now is       30.3 secs

     total energy              =    -326.38637768 Ry
     estimated scf accuracy    <       0.00610556 Ry

     iteration #  4     ecut=    50.00 Ry     beta= 0.70
     Davidson diagonalization with overlap
     ethr =  2.18E-05,  avg # of iterations =  2.9

     negative rho (up, down):  3.975E-03 0.000E+00

     total cpu time spent up to now is       39.8 secs

     total energy              =    -326.38889139 Ry
     estimated scf accuracy    <       0.00098544 Ry

     iteration #  5     ecut=    50.00 Ry     beta= 0.70
     Davidson diagonalization with overlap
     ethr =  3.52E-06,  avg # of iterations =  2.3

     negative rho (up, down):  3.953E-03 0.000E+00

     total cpu time spent up to now is       48.9 secs

     total energy              =    -326.38914559 Ry
     estimated scf accuracy    <       0.00000994 Ry

     iteration #  6     ecut=    50.00 Ry     beta= 0.70
     Davidson diagonalization with overlap
     ethr =  3.55E-08,  avg # of iterations =  4.9

     negative rho (up, down):  3.957E-03 0.000E+00

     total cpu time spent up to now is       58.7 secs

     End of self-consistent calculation

          k = 0.0000 0.0000 0.0000 ( 15193 PWs)   bands (ev):

   -24.2096 -24.2096 -24.2096 -24.0940 -24.0940 -23.9462 -23.9462 -23.8624
   -23.8624 -23.8007 -12.2937  -4.3438  -3.7596  -3.4345

          k = 0.0000 0.0481 0.0000 ( 15197 PWs)   bands (ev):

   -24.2142 -24.2142 -24.2093 -24.0944 -24.0934 -23.9418 -23.9411 -23.8632
   -23.8620 -23.8006 -12.2789  -4.3284  -4.2070  -3.4681

          k = 0.0000 0.0962 0.0000 ( 15201 PWs)   bands (ev):

   -24.2268 -24.2267 -24.2083 -24.0956 -24.0913 -23.9298 -23.9272 -23.8655
   -23.8609 -23.8002 -12.2345  -4.7871  -4.2824  -3.5621

          k = 0.0000 0.1443 0.0000 ( 15219 PWs)   bands (ev):

   -24.2448 -24.2446 -24.2067 -24.0973 -24.0880 -23.9131 -23.9072 -23.8693
   -23.8592 -23.7993 -12.1607  -5.3681  -4.2062  -3.6997

          k = 0.0000 0.1925 0.0000 ( 15233 PWs)   bands (ev):

   -24.2654 -24.2653 -24.2046 -24.0996 -24.0835 -23.8950 -23.8839 -23.8744
   -23.8569 -23.7970 -12.0578  -5.9381  -4.1004  -3.8617

          k = 0.0000 0.2406 0.0000 ( 15283 PWs)   bands (ev):

   -24.2869 -24.2865 -24.2021 -24.1022 -24.0780 -23.8807 -23.8784 -23.8595
   -23.8544 -23.7925 -11.9267  -6.4906  -4.0314  -3.9663

          k = 0.0000 0.2887 0.0000 ( 15295 PWs)   bands (ev):

   -24.3078 -24.3068 -24.1994 -24.1049 -24.0717 -23.8878 -23.8657 -23.8517
   -23.8357 -23.7850 -11.7685  -7.0205  -4.1961  -3.8056

          k = 0.0000 0.3368 0.0000 ( 15253 PWs)   bands (ev):

   -24.3268 -24.3253 -24.1966 -24.1075 -24.0648 -23.8954 -23.8576 -23.8490
   -23.8138 -23.7746 -11.5853  -7.5226  -4.3466  -3.6210

          k = 0.0000 0.3849 0.0000 ( 15265 PWs)   bands (ev):

   -24.3432 -24.3412 -24.1940 -24.1099 -24.0579 -23.9031 -23.8533 -23.8466
   -23.7947 -23.7630 -11.3812  -7.9907  -4.4766  -3.4173

          k = 0.0000 0.4330 0.0000 ( 15279 PWs)   bands (ev):

   -24.3566 -24.3540 -24.1918 -24.1120 -24.0513 -23.9103 -23.8514 -23.8446
   -23.7791 -23.7521 -11.1640  -8.4148  -4.5816  -3.2030

          k = 0.0000 0.4811 0.0000 ( 15298 PWs)   bands (ev):

   -24.3664 -24.3633 -24.1901 -24.1136 -24.0458 -23.9163 -23.8507 -23.8430
   -23.7676 -23.7434 -10.9507  -8.7771  -4.6585  -2.9949

          k = 0.0000 0.5292 0.0000 ( 15314 PWs)   bands (ev):

   -24.3724 -24.3691 -24.1890 -24.1145 -24.0420 -23.9204 -23.8505 -23.8421
   -23.7606 -23.7378 -10.7771  -9.0403  -4.7054  -2.8279

          k = 0.0000-0.5774 0.0000 ( 15320 PWs)   bands (ev):

   -24.3744 -24.3710 -24.1886 -24.1148 -24.0407 -23.9218 -23.8505 -23.8418
   -23.7582 -23.7359 -10.7056  -9.1418  -4.7211  -2.7598

          k = 0.0417 0.0722 0.0000 ( 15198 PWs)   bands (ev):

   -24.2256 -24.2191 -24.2094 -24.0952 -24.0920 -23.9337 -23.9316 -23.8648
   -23.8613 -23.8004 -12.2493  -4.6298  -4.2977  -3.5356

          k = 0.0417 0.1203 0.0000 ( 15209 PWs)   bands (ev):

   -24.2433 -24.2313 -24.2085 -24.0967 -24.0893 -23.9195 -23.9147 -23.8679
   -23.8598 -23.7997 -12.1901  -5.1602  -4.2366  -3.6601

          k = 0.0417 0.1684 0.0000 ( 15244 PWs)   bands (ev):

   -24.2647 -24.2480 -24.2068 -24.0987 -24.0853 -23.9022 -23.8933 -23.8724
   -23.8578 -23.7980 -12.1018  -5.7101  -4.1456  -3.8198

          k = 0.0417 0.2165 0.0000 ( 15258 PWs)   bands (ev):

   -24.2874 -24.2668 -24.2046 -24.1012 -24.0803 -23.8847 -23.8781 -23.8702
   -23.8553 -23.7944 -11.9848  -6.2559  -4.0256  -3.9949

          k = 0.0417 0.2646 0.0000 ( 15280 PWs)   bands (ev):

   -24.3099 -24.2858 -24.2020 -24.1039 -24.0742 -23.8849 -23.8700 -23.8526
   -23.8473 -23.7877 -11.8399  -6.7870  -4.1700  -3.8780

          k = 0.0417 0.3127 0.0000 ( 15272 PWs)   bands (ev):

   -24.3308 -24.3038 -24.1992 -24.1067 -24.0675 -23.8924 -23.8598 -23.8499
   -23.8259 -23.7775 -11.6689  -7.2961  -4.3340  -3.7051

          k = 0.0417 0.3608 0.0000 ( 15273 PWs)   bands (ev):

   -24.3493 -24.3199 -24.1965 -24.1092 -24.0604 -23.9002 -23.8541 -23.8474
   -23.8070 -23.7649 -11.4746  -7.7768  -4.4793  -3.5102

          k = 0.0417 0.4090 0.0000 ( 15288 PWs)   bands (ev):

   -24.3648 -24.3333 -24.1941 -24.1115 -24.0535 -23.9078 -23.8513 -23.8451
   -23.7910 -23.7521 -11.2625  -8.2207  -4.6005  -3.2997

          k = 0.0417 0.4571 0.0000 ( 15293 PWs)   bands (ev):

   -24.3768 -24.3438 -24.1921 -24.1134 -24.0472 -23.9147 -23.8503 -23.8433
   -23.7786 -23.7411 -11.0440  -8.6147  -4.6941  -3.0853

          k = 0.0417 0.5052 0.0000 ( 15287 PWs)   bands (ev):

   -24.3850 -24.3509 -24.1907 -24.1146 -24.0423 -23.9199 -23.8500 -23.8420
   -23.7702 -23.7332 -10.8437  -8.9328  -4.7578  -2.8913

          k = 0.0417 0.5533 0.0000 ( 15288 PWs)   bands (ev):

   -24.3891 -24.3546 -24.1899 -24.1153 -24.0396 -23.9228 -23.8500 -23.8413
   -23.7658 -23.7290 -10.7118  -9.1238  -4.7899  -2.7652

          k = 0.0833 0.1443 0.0000 ( 15234 PWs)   bands (ev):

   -24.2645 -24.2406 -24.2089 -24.0985 -24.0859 -23.9049 -23.8966 -23.8717
   -23.8580 -23.7983 -12.1165  -5.6246  -4.1607  -3.8192

          k = 0.0833 0.1925 0.0000 ( 15253 PWs)   bands (ev):

   -24.2878 -24.2540 -24.2080 -24.1009 -24.0812 -23.8883 -23.8770 -23.8763
   -23.8557 -23.7950 -12.0139  -6.1212  -4.0553  -4.0091

          k = 0.0833 0.2406 0.0000 ( 15280 PWs)   bands (ev):

   -24.3115 -24.2693 -24.2062 -24.1036 -24.0755 -23.8834 -23.8726 -23.8563
   -23.8530 -23.7885 -11.8830  -6.6240  -4.2062  -3.9217

          k = 0.0833 0.2887 0.0000 ( 15283 PWs)   bands (ev):

   -24.3340 -24.2850 -24.2038 -24.1064 -24.0688 -23.8908 -23.8604 -23.8502
   -23.8380 -23.7776 -11.7250  -7.1186  -4.3947  -3.7615

          k = 0.0833 0.3368 0.0000 ( 15277 PWs)   bands (ev):

   -24.3545 -24.2996 -24.2013 -24.1092 -24.0616 -23.8987 -23.8532 -23.8475
   -23.8212 -23.7635 -11.5420  -7.5954  -4.5648  -3.5773

          k = 0.0833 0.3849 0.0000 ( 15278 PWs)   bands (ev):

   -24.3722 -24.3125 -24.1988 -24.1117 -24.0541 -23.9068 -23.8499 -23.8450
   -23.8064 -23.7485 -11.3378  -8.0453  -4.7100  -3.3738

          k = 0.0833 0.4330 0.0000 ( 15284 PWs)   bands (ev):

   -24.3864 -24.3231 -24.1966 -24.1139 -24.0471 -23.9145 -23.8486 -23.8429
   -23.7941 -23.7351 -11.1200  -8.4573  -4.8263  -3.1589

          k = 0.0833 0.4811 0.0000 ( 15309 PWs)   bands (ev):

   -24.3969 -24.3309 -24.1949 -24.1155 -24.0410 -23.9210 -23.8484 -23.8413
   -23.7849 -23.7246 -10.9049  -8.8127  -4.9109  -2.9492

          k = 0.0833 0.5292 0.0000 ( 15290 PWs)   bands (ev):

   -24.4032 -24.3357 -24.1938 -24.1165 -24.0369 -23.9254 -23.8484 -23.8403
   -23.7792 -23.7180 -10.7283  -9.0741  -4.9623  -2.7794

          k = 0.0833 0.5774 0.0000 ( 15302 PWs)   bands (ev):

   -24.4054 -24.3373 -24.1935 -24.1168 -24.0354 -23.9270 -23.8485 -23.8400
   -23.7773 -23.7158 -10.6549  -9.1759  -4.9795  -2.7095

          k = 0.1250 0.2165 0.0000 ( 15266 PWs)   bands (ev):

   -24.3120 -24.2626 -24.2086 -24.1035 -24.0758 -23.8830 -23.8733 -23.8597
   -23.8531 -23.7886 -11.8974  -6.5643  -4.2296  -3.9363

          k = 0.1250 0.2646 0.0000 ( 15287 PWs)   bands (ev):

   -24.3357 -24.2732 -24.2080 -24.1064 -24.0693 -23.8901 -23.8595 -23.8503
   -23.8460 -23.7774 -11.7531  -7.0185  -4.4514  -3.7898

          k = 0.1250 0.3127 0.0000 ( 15289 PWs)   bands (ev):

   -24.3577 -24.2843 -24.2067 -24.1094 -24.0619 -23.8981 -23.8504 -23.8474
   -23.8334 -23.7621 -11.5826  -7.4698  -4.6569  -3.6179

          k = 0.1250 0.3608 0.0000 ( 15290 PWs)   bands (ev):

   -24.3772 -24.2949 -24.2049 -24.1122 -24.0541 -23.9066 -23.8465 -23.8446
   -23.8205 -23.7454 -11.3885  -7.9077  -4.8362  -3.4238

          k = 0.1250 0.4090 0.0000 ( 15299 PWs)   bands (ev):

   -24.3935 -24.3043 -24.2030 -24.1147 -24.0462 -23.9151 -23.8454 -23.8422
   -23.8089 -23.7298 -11.1759  -8.3211  -4.9836  -3.2131

          k = 0.1250 0.4571 0.0000 ( 15306 PWs)   bands (ev):

   -24.4061 -24.3117 -24.2013 -24.1167 -24.0388 -23.9229 -23.8455 -23.8403
   -23.7995 -23.7170 -10.9552  -8.6957  -5.0961  -2.9968

          k = 0.1250 0.5052 0.0000 ( 15312 PWs)   bands (ev):

   -24.4147 -24.3168 -24.2001 -24.1180 -24.0330 -23.9291 -23.8458 -23.8390
   -23.7930 -23.7080 -10.7498  -9.0051  -5.1719  -2.7979

          k = 0.1250 0.5533 0.0000 ( 15307 PWs)   bands (ev):

   -24.4191 -24.3195 -24.1994 -24.1188 -24.0297 -23.9325 -23.8461 -23.8383
   -23.7896 -23.7034 -10.6116  -9.1958  -5.2101  -2.6657

          k = 0.1667 0.2887 0.0000 ( 15294 PWs)   bands (ev):

   -24.3588 -24.2782 -24.2093 -24.1095 -24.0620 -23.8980 -23.8473 -23.8470
   -23.8401 -23.7615 -11.5962  -7.4244  -4.6951  -3.6315

          k = 0.1667 0.3368 0.0000 ( 15300 PWs)   bands (ev):

   -24.3798 -24.2841 -24.2097 -24.1125 -24.0538 -23.9067 -23.8444 -23.8407
   -23.8321 -23.7436 -11.4141  -7.8304  -4.9166  -3.4490

          k = 0.1667 0.3849 0.0000 ( 15307 PWs)   bands (ev):

   -24.3978 -24.2900 -24.2094 -24.1153 -24.0452 -23.9159 -23.8417 -23.8403
   -23.8215 -23.7264 -11.2101  -8.2264  -5.1048  -3.2463

          k = 0.1667 0.4330 0.0000 ( 15309 PWs)   bands (ev):

   -24.4124 -24.2952 -24.2087 -24.1177 -24.0367 -23.9249 -23.8411 -23.8394
   -23.8124 -23.7116 -10.9908  -8.6005  -5.2542  -3.0303

          k = 0.1667 0.4811 0.0000 ( 15305 PWs)   bands (ev):

   -24.4232 -24.2994 -24.2079 -24.1195 -24.0291 -23.9328 -23.8420 -23.8377
   -23.8056 -23.7004 -10.7703  -8.9342  -5.3622  -2.8157

          k = 0.1667 0.5292 0.0000 ( 15313 PWs)   bands (ev):

   -24.4297 -24.3020 -24.2073 -24.1206 -24.0236 -23.9386 -23.8427 -23.8366
   -23.8013 -23.6934 -10.5834  -9.1903  -5.4273  -2.6359

          k = 0.1667 0.5774 0.0000 ( 15298 PWs)   bands (ev):

   -24.4319 -24.3029 -24.2071 -24.1210 -24.0215 -23.9407 -23.8430 -23.8362
   -23.7999 -23.6910 -10.5025  -9.2943  -5.4490  -2.5589

          k = 0.2083 0.3608 0.0000 ( 15320 PWs)   bands (ev):

   -24.3993 -24.2843 -24.2123 -24.1156 -24.0449 -23.9162 -23.8415 -23.8350
   -23.8294 -23.7253 -11.2216  -8.1922  -5.1500  -3.2574

          k = 0.2083 0.4090 0.0000 ( 15309 PWs)   bands (ev):

   -24.4157 -24.2849 -24.2143 -24.1183 -24.0354 -23.9261 -23.8388 -23.8358
   -23.8222 -23.7088 -11.0091  -8.5463  -5.3443  -3.0477

          k = 0.2083 0.4571 0.0000 ( 15313 PWs)   bands (ev):

   -24.4283 -24.2858 -24.2154 -24.1205 -24.0262 -23.9357 -23.8372 -23.8367
   -23.8160 -23.6956 -10.7847  -8.8809  -5.4931  -2.8282

          k = 0.2083 0.5052 0.0000 ( 15308 PWs)   bands (ev):

   -24.4370 -24.2866 -24.2161 -24.1221 -24.0182 -23.9439 -23.8385 -23.8353
   -23.8116 -23.6864 -10.5680  -9.1729  -5.5933  -2.6185

          k = 0.2083 0.5533 0.0000 ( 15308 PWs)   bands (ev):

   -24.4414 -24.2870 -24.2163 -24.1229 -24.0132 -23.9490 -23.8392 -23.8345
   -23.8094 -23.6817 -10.4120  -9.3671  -5.6436  -2.4694

          k = 0.2500 0.4330 0.0000 ( 15280 PWs)   bands (ev):

   -24.4301 -24.2802 -24.2189 -24.1209 -24.0250 -23.9367 -23.8364 -23.8339
   -23.8212 -23.6940 -10.7898  -8.8610  -5.5397  -2.8327

          k = 0.2500 0.4811 0.0000 ( 15307 PWs)   bands (ev):

   -24.4407 -24.2763 -24.2229 -24.1229 -24.0148 -23.9472 -23.8345 -23.8342
   -23.8191 -23.6828 -10.5616  -9.1590  -5.6830  -2.6109

          k = 0.2500 0.5292 0.0000 ( 15315 PWs)   bands (ev):

   -24.4471 -24.2736 -24.2257 -24.1241 -24.0063 -23.9558 -23.8348 -23.8334
   -23.8173 -23.6759 -10.3513  -9.4120  -5.7702  -2.4087

          k = 0.2500 0.5774 0.0000 ( 15316 PWs)   bands (ev):

   -24.4493 -24.2726 -24.2267 -24.1245 -24.0026 -23.9596 -23.8351 -23.8330
   -23.8166 -23.6736 -10.2477  -9.5300  -5.7994  -2.3100

          k = 0.2917 0.5052 0.0000 ( 15312 PWs)   bands (ev):

   -24.4491 -24.2673 -24.2305 -24.1245 -24.0034 -23.9587 -23.8330 -23.8321
   -23.8213 -23.6740 -10.3299  -9.4272  -5.8140  -2.3870

          k = 0.2917 0.5533 0.0000 ( 15329 PWs)   bands (ev):

   -24.4533 -24.2607 -24.2365 -24.1254 -23.9939 -23.9683 -23.8322 -23.8310
   -23.8224 -23.6694 -10.1240  -9.6513  -5.8807  -2.1898

          k = 0.3333 0.5774 0.0000 ( 15288 PWs)   bands (ev):

   -24.4554 -24.2482 -24.2482 -24.1258 -23.9811 -23.9811 -23.8318 -23.8269
   -23.8269 -23.6672  -9.8895  -9.8895  -5.9183  -1.9658

     highest occupied level (ev):    -1.9658

!    total energy              =    -326.38923295 Ry
     estimated scf accuracy    <       0.00000075 Ry

     The total energy is the sum of the following terms:
     one-electron contribution =    -882.71109672 Ry
     hartree contribution      =     448.41019183 Ry
     xc contribution           =     -95.06663180 Ry
     ewald contribution        =     202.97830375 Ry

     convergence has been achieved in   6 iterations

     Writing output data file ../tmp/stanene.save/

     init_run     :      3.16s CPU      3.33s WALL (       1 calls)
     electrons    :     53.16s CPU     55.25s WALL (       1 calls)

     Called by init_run:
     wfcinit      :      2.82s CPU      2.95s WALL (       1 calls)
     potinit      :      0.08s CPU      0.09s WALL (       1 calls)
     hinit0       :      0.12s CPU      0.12s WALL (       1 calls)

     Called by electrons:
     c_bands      :     46.90s CPU     48.49s WALL (       6 calls)
     sum_band     :      5.55s CPU      5.95s WALL (       6 calls)
     v_of_rho     :      0.26s CPU      0.28s WALL (       7 calls)
     newd         :      0.52s CPU      0.61s WALL (       7 calls)
     mix_rho      :      0.03s CPU      0.04s WALL (       6 calls)

     Called by c_bands:
     init_us_2    :      0.55s CPU      0.56s WALL (     793 calls)
     cegterg      :     44.74s CPU     46.31s WALL (     366 calls)

     Called by *egterg:
     cdiaghg      :      0.76s CPU      0.76s WALL (    1354 calls)
     h_psi        :     29.43s CPU     31.01s WALL (    1415 calls)
     s_psi        :      2.50s CPU      2.54s WALL (    1415 calls)
     g_psi        :      0.24s CPU      0.24s WALL (     988 calls)

     Called by h_psi:
     h_psi:calbec :      3.95s CPU      4.16s WALL (    1415 calls)
     vloc_psi     :     22.82s CPU     24.11s WALL (    1415 calls)
     add_vuspsi   :      2.54s CPU      2.62s WALL (    1415 calls)

     General routines
     calbec       :      5.11s CPU      5.37s WALL (    1781 calls)
     fft          :      0.16s CPU      0.18s WALL (      77 calls)
     ffts         :      0.01s CPU      0.01s WALL (       6 calls)
     fftw         :     23.82s CPU     25.08s WALL (   38734 calls)

     Parallel routines
     fft_scatt_xy :      2.12s CPU      2.27s WALL (   38817 calls)
     fft_scatt_yz :     12.65s CPU     13.23s WALL (   38817 calls)

     PWSCF        :     56.50s CPU     58.92s WALL


   This run was terminated on:   0:20:32  20Jan2024            

=------------------------------------------------------------------------------=
   JOB DONE.
=------------------------------------------------------------------------------=
