
     Program PHONON v.6.7MaX starts on 27Jan2024 at 22:50:25 

     This program is part of the open-source Quantum ESPRESSO suite
     for quantum simulation of materials; please cite
         "P. Giannozzi et al., J. Phys.:Condens. Matter 21 395502 (2009);
         "P. Giannozzi et al., J. Phys.:Condens. Matter 29 465901 (2017);
          URL http://www.quantum-espresso.org", 
     in publications or presentations arising from this work. More details at
     http://www.quantum-espresso.org/quote

     Parallel version (MPI), running on     6 processors

     MPI processes distributed on     1 nodes
     R & G space division:  proc/nbgrp/npool/nimage =       6
     Waiting for input...
     Reading input from standard input
      Title line not specified: using 'default'.

     Reading xml data from directory:

     ../tmp/stanene.save/

     IMPORTANT: XC functional enforced from input :
     Exchange-correlation= PBE
                           (   1   4   3   4   0   0   0)
     Any further DFT definition will be discarded
     Please, verify this is what you really want


     Parallelization info
     --------------------
     sticks:   dense  smooth     PW     G-vecs:    dense   smooth      PW
     Min         324     324     88                49306    49306    7102
     Max         325     325     90                49325    49325    7107
     Sum        1945    1945    535               295873   295873   42629

 ----2D----2D----2D----2D----2D----2D----2D----2D----2D----2D----2D----2D
  The code is running with the 2D cutoff
  Please refer to:
  Sohier, T., Calandra, M., & Mauri, F. (2017), 
  Density functional perturbation theory for gated two-dimensional heterostructures:
  Theoretical developments and application to flexural phonons in graphene.
  Physical Review B, 96(7), 75448. https://doi.org/10.1103/PhysRevB.96.075448
 ----2D----2D----2D----2D----2D----2D----2D----2D----2D----2D----2D----2D

     negative rho (up, down):  2.673E-04 0.000E+00
     Reading collected, re-writing distributed wavefunctions


     Dynamical matrices for ( 6, 6, 1)  uniform grid of q-points
     (   7 q-points):
       N         xq(1)         xq(2)         xq(3) 
       1   0.000000000   0.000000000   0.000000000
       2   0.000000000   0.192450090   0.000000000
       3   0.000000000   0.384900179   0.000000000
       4   0.000000000  -0.577350269   0.000000000
       5   0.166666667   0.288675135   0.000000000
       6   0.166666667   0.481125224   0.000000000
       7   0.333333333   0.577350269   0.000000000

     Calculation of q =    0.0000000   0.0000000   0.0000000

     default                                                                    

     bravais-lattice index     =            4
     lattice parameter (alat)  =       8.8506  a.u.
     unit-cell volume          =    2563.9136 (a.u.)^3
     number of atoms/cell      =            2
     number of atomic types    =            1
     kinetic-energy cut-off    =      90.0000  Ry
     charge density cut-off    =     360.0000  Ry
     convergence threshold     =      1.0E-14
     beta                      =       0.7000
     number of iterations used =            4
     Exchange-correlation= PBE
                           (   1   4   3   4   0   0   0)


     celldm(1)=    8.85058  celldm(2)=    0.00000  celldm(3)=    4.27029
     celldm(4)=    0.00000  celldm(5)=    0.00000  celldm(6)=    0.00000

     crystal axes: (cart. coord. in units of alat)
               a(1) = (  1.0000  0.0000  0.0000 )  
               a(2) = ( -0.5000  0.8660  0.0000 )  
               a(3) = (  0.0000  0.0000  4.2703 )  

     reciprocal axes: (cart. coord. in units 2 pi/alat)
               b(1) = (  1.0000  0.5774 -0.0000 )  
               b(2) = (  0.0000  1.1547  0.0000 )  
               b(3) = (  0.0000 -0.0000  0.2342 )  


     Atoms inside the unit cell: 

     Cartesian axes

     site n.  atom      mass           positions (alat units)
        1     Sn 118.7100   tau(    1) = (    0.00000    0.57735    2.13514  )
        2     Sn 118.7100   tau(    2) = (    0.50000    0.28868    1.95525  )

     Computing dynamical matrix for 
                    q = (   0.0000000   0.0000000   0.0000000 )

      7 Sym.Ops. (with q -> -q+G )


     G cutoff =  714.3099  (  49308 G-vectors)     FFT grid: ( 54, 54,240)

     number of k points=    19  Methfessel-Paxton smearing, width (Ry)=  0.0200

     PseudoPot. # 1 for Sn read from file:
     ../pseudo/Sn_pbe_v1.uspp.F.UPF
     MD5 check sum: 4cf58ce39ec5d5d420df3dd08604eb00
     Pseudo is Ultrasoft + core correction, Zval = 14.0
     Generated by new atomic code, or converted to UPF format
     Using radial grid of  891 points,  6 beta functions with: 
                l(1) =   0
                l(2) =   0
                l(3) =   1
                l(4) =   1
                l(5) =   2
                l(6) =   2
     Q(r) pseudized with  6 coefficients,  rinner =    1.200   1.200   1.200
                                                       1.200   1.200

     Mode symmetry, C_3v (3m)   point group:


     Atomic displacements:
     There are    4 irreducible representations

     Representation     1      1 modes -  To be done

     Representation     2      1 modes -  To be done

     Representation     3      2 modes -  To be done

     Representation     4      2 modes -  To be done



     Alpha used in Ewald sum =   2.8000

     negative rho (up, down):  2.673E-04 0.000E+00
     PHONON       :     20.74s CPU     21.63s WALL



     Representation #   1 mode #   1

     Self-consistent Calculation

     Pert. #  1: Fermi energy shift (Ry) =    -3.0508E-01    -6.7763E-21

      iter #   1 total cpu time :    46.8 secs   av.it.:   6.2
      thresh= 1.000E-02 alpha_mix =  0.700 |ddv_scf|^2 =  9.383E-05

     Pert. #  1: Fermi energy shift (Ry) =     2.6918E-01     3.3881E-21

      iter #   2 total cpu time :    75.8 secs   av.it.:   9.8
      thresh= 9.687E-04 alpha_mix =  0.700 |ddv_scf|^2 =  1.017E-03

     Pert. #  1: Fermi energy shift (Ry) =     1.7563E-01    -5.4210E-20

      iter #   3 total cpu time :    99.5 secs   av.it.:   7.9
      thresh= 3.189E-03 alpha_mix =  0.700 |ddv_scf|^2 =  6.287E-07

     Pert. #  1: Fermi energy shift (Ry) =    -4.1489E-02     2.1176E-22

      iter #   4 total cpu time :   128.3 secs   av.it.:   9.7
      thresh= 7.929E-05 alpha_mix =  0.700 |ddv_scf|^2 =  2.747E-07

     Pert. #  1: Fermi energy shift (Ry) =    -2.1062E-02    -2.1176E-22

      iter #   5 total cpu time :   154.5 secs   av.it.:   8.8
      thresh= 5.241E-05 alpha_mix =  0.700 |ddv_scf|^2 =  3.334E-08

     Pert. #  1: Fermi energy shift (Ry) =    -1.1587E-02     2.1176E-22

      iter #   6 total cpu time :   181.6 secs   av.it.:   9.0
      thresh= 1.826E-05 alpha_mix =  0.700 |ddv_scf|^2 =  1.777E-10

     Pert. #  1: Fermi energy shift (Ry) =    -1.2159E-02     2.6470E-23

      iter #   7 total cpu time :   211.0 secs   av.it.:  10.7
      thresh= 1.333E-06 alpha_mix =  0.700 |ddv_scf|^2 =  1.094E-11

     Pert. #  1: Fermi energy shift (Ry) =    -1.1334E-02     6.6174E-24

      iter #   8 total cpu time :   238.3 secs   av.it.:   9.2
      thresh= 3.308E-07 alpha_mix =  0.700 |ddv_scf|^2 =  3.268E-13

     Pert. #  1: Fermi energy shift (Ry) =    -1.1425E-02     6.6174E-24

      iter #   9 total cpu time :   269.1 secs   av.it.:  10.0
      thresh= 5.716E-08 alpha_mix =  0.700 |ddv_scf|^2 =  5.003E-15

     End of self-consistent calculation

     Convergence has been achieved 


     Representation #   2 mode #   2

     Self-consistent Calculation

     Pert. #  1: Fermi energy shift (Ry) =     3.0437E-01    -6.7763E-21

      iter #   1 total cpu time :   292.8 secs   av.it.:   6.2
      thresh= 1.000E-02 alpha_mix =  0.700 |ddv_scf|^2 =  9.379E-05

     Pert. #  1: Fermi energy shift (Ry) =    -2.6751E-01     3.3881E-21

      iter #   2 total cpu time :   321.6 secs   av.it.:   9.8
      thresh= 9.684E-04 alpha_mix =  0.700 |ddv_scf|^2 =  1.017E-03

     Pert. #  1: Fermi energy shift (Ry) =    -1.7566E-01    -5.4210E-20

      iter #   3 total cpu time :   345.1 secs   av.it.:   7.9
      thresh= 3.189E-03 alpha_mix =  0.700 |ddv_scf|^2 =  6.417E-07

     Pert. #  1: Fermi energy shift (Ry) =     4.2789E-02     2.1176E-22

      iter #   4 total cpu time :   373.2 secs   av.it.:   9.7
      thresh= 8.011E-05 alpha_mix =  0.700 |ddv_scf|^2 =  2.736E-07

     Pert. #  1: Fermi energy shift (Ry) =     2.0660E-02    -4.2352E-22

      iter #   5 total cpu time :   399.3 secs   av.it.:   8.9
      thresh= 5.231E-05 alpha_mix =  0.700 |ddv_scf|^2 =  4.446E-08

     Pert. #  1: Fermi energy shift (Ry) =     1.1797E-02    -5.2940E-23

      iter #   6 total cpu time :   426.0 secs   av.it.:   8.8
      thresh= 2.109E-05 alpha_mix =  0.700 |ddv_scf|^2 =  7.394E-11

     Pert. #  1: Fermi energy shift (Ry) =     1.2099E-02    -6.6174E-24

      iter #   7 total cpu time :   456.8 secs   av.it.:  10.9
      thresh= 8.599E-07 alpha_mix =  0.700 |ddv_scf|^2 =  8.768E-12

     Pert. #  1: Fermi energy shift (Ry) =     1.1264E-02    -1.3235E-23

      iter #   8 total cpu time :   483.8 secs   av.it.:   9.2
      thresh= 2.961E-07 alpha_mix =  0.700 |ddv_scf|^2 =  2.487E-13

     Pert. #  1: Fermi energy shift (Ry) =     1.1327E-02    -1.3235E-23

      iter #   9 total cpu time :   512.9 secs   av.it.:  10.1
      thresh= 4.986E-08 alpha_mix =  0.700 |ddv_scf|^2 =  3.911E-15

     End of self-consistent calculation

     Convergence has been achieved 


     Representation #   3 modes #   3   4

     Self-consistent Calculation

     Pert. #  1: Fermi energy shift (Ry) =     1.2649E-19    -4.0124E-36
     Pert. #  2: Fermi energy shift (Ry) =     4.3368E-19    -4.0124E-36

      iter #   1 total cpu time :   556.9 secs   av.it.:   6.0
      thresh= 1.000E-02 alpha_mix =  0.700 |ddv_scf|^2 =  1.032E-07

     Pert. #  1: Fermi energy shift (Ry) =    -3.1623E-20     3.1347E-38
     Pert. #  2: Fermi energy shift (Ry) =    -1.3553E-20     3.1347E-38

      iter #   2 total cpu time :   623.0 secs   av.it.:  12.6
      thresh= 3.212E-05 alpha_mix =  0.700 |ddv_scf|^2 =  1.540E-08

     Pert. #  1: Fermi energy shift (Ry) =     2.7105E-20     7.8366E-39
     Pert. #  2: Fermi energy shift (Ry) =     2.7105E-20    -2.3510E-38

      iter #   3 total cpu time :   688.6 secs   av.it.:  12.2
      thresh= 1.241E-05 alpha_mix =  0.700 |ddv_scf|^2 =  3.707E-10

     Pert. #  1: Fermi energy shift (Ry) =    -7.2280E-20     3.9183E-39
     Pert. #  2: Fermi energy shift (Ry) =     3.1623E-20    -3.9183E-39

      iter #   4 total cpu time :   753.4 secs   av.it.:  11.7
      thresh= 1.925E-06 alpha_mix =  0.700 |ddv_scf|^2 =  1.287E-11

     Pert. #  1: Fermi energy shift (Ry) =     9.0350E-21    -1.9592E-39
     Pert. #  2: Fermi energy shift (Ry) =    -9.0350E-21    -5.8775E-39

      iter #   5 total cpu time :   819.2 secs   av.it.:  12.3
      thresh= 3.587E-07 alpha_mix =  0.700 |ddv_scf|^2 =  8.613E-14

     Pert. #  1: Fermi energy shift (Ry) =     9.0350E-21    -1.9592E-39
     Pert. #  2: Fermi energy shift (Ry) =     1.8070E-20    -5.8775E-39

      iter #   6 total cpu time :   886.1 secs   av.it.:  12.5
      thresh= 2.935E-08 alpha_mix =  0.700 |ddv_scf|^2 =  3.895E-15

     End of self-consistent calculation

     Convergence has been achieved 


     Representation #   4 modes #   5   6

     Self-consistent Calculation

     Pert. #  1: Fermi energy shift (Ry) =    -1.6263E-19     0.0000E+00
     Pert. #  2: Fermi energy shift (Ry) =    -4.7886E-19    -5.0154E-36

      iter #   1 total cpu time :   930.9 secs   av.it.:   6.0
      thresh= 1.000E-02 alpha_mix =  0.700 |ddv_scf|^2 =  1.047E-07

     Pert. #  1: Fermi energy shift (Ry) =     1.0390E-19    -1.1755E-38
     Pert. #  2: Fermi energy shift (Ry) =     1.4456E-19     3.9183E-39

      iter #   2 total cpu time :   999.0 secs   av.it.:  12.6
      thresh= 3.235E-05 alpha_mix =  0.700 |ddv_scf|^2 =  1.558E-08

     Pert. #  1: Fermi energy shift (Ry) =    -6.3245E-20     1.4694E-39
     Pert. #  2: Fermi energy shift (Ry) =    -1.8070E-20    -4.8979E-40

      iter #   3 total cpu time :  1064.2 secs   av.it.:  12.2
      thresh= 1.248E-05 alpha_mix =  0.700 |ddv_scf|^2 =  4.015E-10

     Pert. #  1: Fermi energy shift (Ry) =    -4.5175E-20    -7.3468E-40
     Pert. #  2: Fermi energy shift (Ry) =    -9.0350E-20     2.4489E-40

      iter #   4 total cpu time :  1127.5 secs   av.it.:  11.6
      thresh= 2.004E-06 alpha_mix =  0.700 |ddv_scf|^2 =  1.303E-11

     Pert. #  1: Fermi energy shift (Ry) =    -6.3245E-20     0.0000E+00
     Pert. #  2: Fermi energy shift (Ry) =    -7.6798E-20     4.8979E-39

      iter #   5 total cpu time :  1194.1 secs   av.it.:  12.3
      thresh= 3.610E-07 alpha_mix =  0.700 |ddv_scf|^2 =  8.198E-14

     Pert. #  1: Fermi energy shift (Ry) =    -3.6140E-20     0.0000E+00
     Pert. #  2: Fermi energy shift (Ry) =    -1.2197E-19     4.8979E-39

      iter #   6 total cpu time :  1260.7 secs   av.it.:  12.5
      thresh= 2.863E-08 alpha_mix =  0.700 |ddv_scf|^2 =  3.828E-15

     End of self-consistent calculation

     Convergence has been achieved 

     Number of q in the star =    1
     List of q in the star:
          1   0.000000000   0.000000000   0.000000000

     Diagonalizing the dynamical matrix

     q = (    0.000000000   0.000000000   0.000000000 ) 

 **************************************************************************
     freq (    1) =      -0.233229 [THz] =      -7.779680 [cm-1]
     freq (    2) =       0.479930 [THz] =      16.008751 [cm-1]
     freq (    3) =       0.479930 [THz] =      16.008751 [cm-1]
     freq (    4) =       3.436105 [THz] =     114.616134 [cm-1]
     freq (    5) =       5.480441 [THz] =     182.807822 [cm-1]
     freq (    6) =       5.480441 [THz] =     182.807822 [cm-1]
 **************************************************************************

     Mode symmetry, C_3v (3m)   point group:

     freq (   1-   1) =         -7.8  [cm-1]   --> A_1  L_1        I+R
     freq (   2-   3) =         16.0  [cm-1]   --> E    L_3        I+R
     freq (   4-   4) =        114.6  [cm-1]   --> A_1  L_1        I+R
     freq (   5-   6) =        182.8  [cm-1]   --> E    L_3        I+R

     Calculation of q =    0.0000000   0.1924501   0.0000000

     Subspace diagonalization in iterative solution of the eigenvalue problem:
     one sub-group per band group will be used
     scalapack distributed-memory algorithm (size of sub-group:  2*  2 procs)


     Parallelization info
     --------------------
     sticks:   dense  smooth     PW     G-vecs:    dense   smooth      PW
     Min         324     324     92                49306    49306    7405
     Max         325     325     94                49325    49325    7408
     Sum        1945    1945    559               295873   295873   44443


     Title: 
     default                                                                    


     bravais-lattice index     =            4
     lattice parameter (alat)  =       8.8506  a.u.
     unit-cell volume          =    2563.9136 (a.u.)^3
     number of atoms/cell      =            2
     number of atomic types    =            1
     number of electrons       =        28.00
     number of Kohn-Sham states=           18
     kinetic-energy cutoff     =      90.0000  Ry
     charge density cutoff     =     360.0000  Ry
     Exchange-correlation= PBE
                           (   1   4   3   4   0   0   0)

     celldm(1)=   8.850584  celldm(2)=   0.000000  celldm(3)=   4.270286
     celldm(4)=   0.000000  celldm(5)=   0.000000  celldm(6)=   0.000000

     crystal axes: (cart. coord. in units of alat)
               a(1) = (   1.000000   0.000000   0.000000 )  
               a(2) = (  -0.500000   0.866025   0.000000 )  
               a(3) = (   0.000000   0.000000   4.270286 )  

     reciprocal axes: (cart. coord. in units 2 pi/alat)
               b(1) = (  1.000000  0.577350 -0.000000 )  
               b(2) = (  0.000000  1.154701  0.000000 )  
               b(3) = (  0.000000 -0.000000  0.234176 )  


     PseudoPot. # 1 for Sn read from file:
     ../pseudo/Sn_pbe_v1.uspp.F.UPF
     MD5 check sum: 4cf58ce39ec5d5d420df3dd08604eb00
     Pseudo is Ultrasoft + core correction, Zval = 14.0
     Generated by new atomic code, or converted to UPF format
     Using radial grid of  891 points,  6 beta functions with: 
                l(1) =   0
                l(2) =   0
                l(3) =   1
                l(4) =   1
                l(5) =   2
                l(6) =   2
     Q(r) pseudized with  6 coefficients,  rinner =    1.200   1.200   1.200
                                                       1.200   1.200

     atomic species   valence    mass     pseudopotential
        Sn            14.00   118.71000     Sn( 1.00)

      6 Sym. Ops. (no inversion) found



   Cartesian axes

     site n.     atom                  positions (alat units)
         1           Sn  tau(   1) = (   0.0000000   0.5773503   2.1351428  )
         2           Sn  tau(   2) = (   0.5000000   0.2886751   1.9552503  )

     number of k points=   156  Methfessel-Paxton smearing, width (Ry)=  0.0200

     Number of k-points >= 100: set verbosity='high' to print them.

     Dense  grid:   295873 G-vectors     FFT dimensions: (  54,  54, 240)

     Estimated max dynamical RAM per process >     162.98 MB

     Estimated total dynamical RAM >     977.88 MB
 ----2D----2D----2D----2D----2D----2D----2D----2D----2D----2D----2D----2D
  The code is running with the 2D cutoff
  Please refer to:
  Sohier, T., Calandra, M., & Mauri, F. (2017), 
  Density functional perturbation theory for gated two-dimensional heterostructures:
  Theoretical developments and application to flexural phonons in graphene.
  Physical Review B, 96(7), 75448. https://doi.org/10.1103/PhysRevB.96.075448
 ----2D----2D----2D----2D----2D----2D----2D----2D----2D----2D----2D----2D

     The potential is recalculated from file :
     ../tmp/_ph0/stanene.save/charge-density


     negative rho (up, down):  2.673E-04 0.000E+00
     Starting wfcs are   18 atomic wfcs

     Band Structure Calculation
     Davidson diagonalization with overlap

     ethr =  3.57E-11,  avg # of iterations = 24.8

     total cpu time spent up to now is      352.1 secs

     End of band structure calculation

     Number of k-points >= 100: set verbosity='high' to print the bands.

     the Fermi energy is    -4.2843 ev

     Writing output data file ../tmp/_ph0/stanene.save/

     default                                                                    

     bravais-lattice index     =            4
     lattice parameter (alat)  =       8.8506  a.u.
     unit-cell volume          =    2563.9136 (a.u.)^3
     number of atoms/cell      =            2
     number of atomic types    =            1
     kinetic-energy cut-off    =      90.0000  Ry
     charge density cut-off    =     360.0000  Ry
     convergence threshold     =      1.0E-14
     beta                      =       0.7000
     number of iterations used =            4
     Exchange-correlation= PBE
                           (   1   4   3   4   0   0   0)


     celldm(1)=    8.85058  celldm(2)=    0.00000  celldm(3)=    4.27029
     celldm(4)=    0.00000  celldm(5)=    0.00000  celldm(6)=    0.00000

     crystal axes: (cart. coord. in units of alat)
               a(1) = (  1.0000  0.0000  0.0000 )  
               a(2) = ( -0.5000  0.8660  0.0000 )  
               a(3) = (  0.0000  0.0000  4.2703 )  

     reciprocal axes: (cart. coord. in units 2 pi/alat)
               b(1) = (  1.0000  0.5774 -0.0000 )  
               b(2) = (  0.0000  1.1547  0.0000 )  
               b(3) = (  0.0000 -0.0000  0.2342 )  


     Atoms inside the unit cell: 

     Cartesian axes

     site n.  atom      mass           positions (alat units)
        1     Sn 118.7100   tau(    1) = (    0.00000    0.57735    2.13514  )
        2     Sn 118.7100   tau(    2) = (    0.50000    0.28868    1.95525  )

     Computing dynamical matrix for 
                    q = (   0.0000000   0.1924501   0.0000000 )

      2 Sym.Ops. (no q -> -q+G )


     G cutoff =  714.3099  (  49308 G-vectors)     FFT grid: ( 54, 54,240)

     number of k points=   156  Methfessel-Paxton smearing, width (Ry)=  0.0200

     PseudoPot. # 1 for Sn read from file:
     ../pseudo/Sn_pbe_v1.uspp.F.UPF
     MD5 check sum: 4cf58ce39ec5d5d420df3dd08604eb00
     Pseudo is Ultrasoft + core correction, Zval = 14.0
     Generated by new atomic code, or converted to UPF format
     Using radial grid of  891 points,  6 beta functions with: 
                l(1) =   0
                l(2) =   0
                l(3) =   1
                l(4) =   1
                l(5) =   2
                l(6) =   2
     Q(r) pseudized with  6 coefficients,  rinner =    1.200   1.200   1.200
                                                       1.200   1.200

     Mode symmetry, C_s (m)     point group:


     Atomic displacements:
     There are    6 irreducible representations

     Representation     1      1 modes -  To be done

     Representation     2      1 modes -  To be done

     Representation     3      1 modes -  To be done

     Representation     4      1 modes -  To be done

     Representation     5      1 modes -  To be done

     Representation     6      1 modes -  To be done



     Alpha used in Ewald sum =   2.8000

     negative rho (up, down):  2.673E-04 0.000E+00
     PHONON       :  27m17.06s CPU  27m49.59s WALL



     Representation #   1 mode #   1

     Self-consistent Calculation

      iter #   1 total cpu time :  1754.2 secs   av.it.:   6.2
      thresh= 1.000E-02 alpha_mix =  0.700 |ddv_scf|^2 =  7.330E-06

      iter #   2 total cpu time :  1878.3 secs   av.it.:  11.3
      thresh= 2.707E-04 alpha_mix =  0.700 |ddv_scf|^2 =  5.164E-05

      iter #   3 total cpu time :  1982.1 secs   av.it.:   9.2
      thresh= 7.186E-04 alpha_mix =  0.700 |ddv_scf|^2 =  1.472E-05

      iter #   4 total cpu time :  2080.1 secs   av.it.:   8.4
      thresh= 3.836E-04 alpha_mix =  0.700 |ddv_scf|^2 =  1.224E-07

      iter #   5 total cpu time :  2196.1 secs   av.it.:  10.6
      thresh= 3.499E-05 alpha_mix =  0.700 |ddv_scf|^2 =  3.535E-08

      iter #   6 total cpu time :  2307.3 secs   av.it.:  10.0
      thresh= 1.880E-05 alpha_mix =  0.700 |ddv_scf|^2 =  2.885E-09

      iter #   7 total cpu time :  2424.2 secs   av.it.:  10.6
      thresh= 5.371E-06 alpha_mix =  0.700 |ddv_scf|^2 =  6.496E-10

      iter #   8 total cpu time :  2533.2 secs   av.it.:   9.8
      thresh= 2.549E-06 alpha_mix =  0.700 |ddv_scf|^2 =  4.501E-11

      iter #   9 total cpu time :  2642.1 secs   av.it.:   9.8
      thresh= 6.709E-07 alpha_mix =  0.700 |ddv_scf|^2 =  2.247E-10

      iter #  10 total cpu time :  2739.0 secs   av.it.:   8.4
      thresh= 1.499E-06 alpha_mix =  0.700 |ddv_scf|^2 =  2.147E-13

      iter #  11 total cpu time :  2860.1 secs   av.it.:  11.2
      thresh= 4.634E-08 alpha_mix =  0.700 |ddv_scf|^2 =  1.470E-13

      iter #  12 total cpu time :  2971.8 secs   av.it.:  10.2
      thresh= 3.834E-08 alpha_mix =  0.700 |ddv_scf|^2 =  1.211E-13

      iter #  13 total cpu time :  3079.1 secs   av.it.:   9.6
      thresh= 3.480E-08 alpha_mix =  0.700 |ddv_scf|^2 =  2.450E-15

     End of self-consistent calculation

     Convergence has been achieved 


     Representation #   2 mode #   2

     Self-consistent Calculation

      iter #   1 total cpu time :  3162.3 secs   av.it.:   6.2
      thresh= 1.000E-02 alpha_mix =  0.700 |ddv_scf|^2 =  7.127E-06

      iter #   2 total cpu time :  3286.7 secs   av.it.:  11.2
      thresh= 2.670E-04 alpha_mix =  0.700 |ddv_scf|^2 =  4.364E-05

      iter #   3 total cpu time :  3390.6 secs   av.it.:   9.2
      thresh= 6.606E-04 alpha_mix =  0.700 |ddv_scf|^2 =  1.347E-05

      iter #   4 total cpu time :  3486.2 secs   av.it.:   8.3
      thresh= 3.670E-04 alpha_mix =  0.700 |ddv_scf|^2 =  1.424E-07

      iter #   5 total cpu time :  3599.2 secs   av.it.:  10.5
      thresh= 3.773E-05 alpha_mix =  0.700 |ddv_scf|^2 =  3.769E-08

      iter #   6 total cpu time :  3709.9 secs   av.it.:  10.0
      thresh= 1.941E-05 alpha_mix =  0.700 |ddv_scf|^2 =  3.033E-09

      iter #   7 total cpu time :  3829.2 secs   av.it.:  10.7
      thresh= 5.507E-06 alpha_mix =  0.700 |ddv_scf|^2 =  6.835E-10

      iter #   8 total cpu time :  3939.9 secs   av.it.:   9.8
      thresh= 2.614E-06 alpha_mix =  0.700 |ddv_scf|^2 =  3.588E-10

      iter #   9 total cpu time :  4044.1 secs   av.it.:   9.0
      thresh= 1.894E-06 alpha_mix =  0.700 |ddv_scf|^2 =  8.149E-11

      iter #  10 total cpu time :  4158.0 secs   av.it.:   9.9
      thresh= 9.027E-07 alpha_mix =  0.700 |ddv_scf|^2 =  2.135E-12

      iter #  11 total cpu time :  4276.4 secs   av.it.:  10.8
      thresh= 1.461E-07 alpha_mix =  0.700 |ddv_scf|^2 =  2.016E-13

      iter #  12 total cpu time :  4391.9 secs   av.it.:  10.4
      thresh= 4.490E-08 alpha_mix =  0.700 |ddv_scf|^2 =  2.567E-13

      iter #  13 total cpu time :  4501.7 secs   av.it.:   9.9
      thresh= 5.066E-08 alpha_mix =  0.700 |ddv_scf|^2 =  1.345E-14

      iter #  14 total cpu time :  4612.5 secs   av.it.:   9.9
      thresh= 1.160E-08 alpha_mix =  0.700 |ddv_scf|^2 =  4.822E-15

     End of self-consistent calculation

     Convergence has been achieved 


     Representation #   3 mode #   3

     Self-consistent Calculation

      iter #   1 total cpu time :  4698.3 secs   av.it.:   6.3
      thresh= 1.000E-02 alpha_mix =  0.700 |ddv_scf|^2 =  3.975E-05

      iter #   2 total cpu time :  4815.2 secs   av.it.:  10.3
      thresh= 6.305E-04 alpha_mix =  0.700 |ddv_scf|^2 =  1.176E-03

      iter #   3 total cpu time :  4904.9 secs   av.it.:   7.4
      thresh= 3.430E-03 alpha_mix =  0.700 |ddv_scf|^2 =  1.232E-07

      iter #   4 total cpu time :  5030.8 secs   av.it.:  11.5
      thresh= 3.509E-05 alpha_mix =  0.700 |ddv_scf|^2 =  1.022E-08

      iter #   5 total cpu time :  5153.4 secs   av.it.:  11.0
      thresh= 1.011E-05 alpha_mix =  0.700 |ddv_scf|^2 =  1.452E-09

      iter #   6 total cpu time :  5272.8 secs   av.it.:  10.8
      thresh= 3.810E-06 alpha_mix =  0.700 |ddv_scf|^2 =  6.212E-10

      iter #   7 total cpu time :  5388.1 secs   av.it.:  10.2
      thresh= 2.492E-06 alpha_mix =  0.700 |ddv_scf|^2 =  1.523E-10

      iter #   8 total cpu time :  5507.8 secs   av.it.:  10.7
      thresh= 1.234E-06 alpha_mix =  0.700 |ddv_scf|^2 =  8.172E-10

      iter #   9 total cpu time :  5600.7 secs   av.it.:   7.9
      thresh= 2.859E-06 alpha_mix =  0.700 |ddv_scf|^2 =  7.444E-12

      iter #  10 total cpu time :  5720.3 secs   av.it.:  10.9
      thresh= 2.728E-07 alpha_mix =  0.700 |ddv_scf|^2 =  4.115E-13

      iter #  11 total cpu time :  5844.0 secs   av.it.:  11.4
      thresh= 6.415E-08 alpha_mix =  0.700 |ddv_scf|^2 =  1.280E-12

      iter #  12 total cpu time :  5943.3 secs   av.it.:   8.4
      thresh= 1.132E-07 alpha_mix =  0.700 |ddv_scf|^2 =  1.206E-13

      iter #  13 total cpu time :  6053.3 secs   av.it.:   9.8
      thresh= 3.473E-08 alpha_mix =  0.700 |ddv_scf|^2 =  4.849E-15

     End of self-consistent calculation

     Convergence has been achieved 


     Representation #   4 mode #   4

     Self-consistent Calculation

      iter #   1 total cpu time :  6139.1 secs   av.it.:   6.3
      thresh= 1.000E-02 alpha_mix =  0.700 |ddv_scf|^2 =  3.997E-05

      iter #   2 total cpu time :  6254.6 secs   av.it.:  10.3
      thresh= 6.322E-04 alpha_mix =  0.700 |ddv_scf|^2 =  1.185E-03

      iter #   3 total cpu time :  6345.3 secs   av.it.:   7.4
      thresh= 3.442E-03 alpha_mix =  0.700 |ddv_scf|^2 =  1.095E-07

      iter #   4 total cpu time :  6472.2 secs   av.it.:  11.7
      thresh= 3.310E-05 alpha_mix =  0.700 |ddv_scf|^2 =  8.132E-09

      iter #   5 total cpu time :  6597.4 secs   av.it.:  11.5
      thresh= 9.018E-06 alpha_mix =  0.700 |ddv_scf|^2 =  9.556E-09

      iter #   6 total cpu time :  6707.0 secs   av.it.:   9.8
      thresh= 9.775E-06 alpha_mix =  0.700 |ddv_scf|^2 =  5.282E-10

      iter #   7 total cpu time :  6826.5 secs   av.it.:  10.9
      thresh= 2.298E-06 alpha_mix =  0.700 |ddv_scf|^2 =  5.420E-11

      iter #   8 total cpu time :  6954.7 secs   av.it.:  11.4
      thresh= 7.362E-07 alpha_mix =  0.700 |ddv_scf|^2 =  7.397E-10

      iter #   9 total cpu time :  7049.5 secs   av.it.:   8.2
      thresh= 2.720E-06 alpha_mix =  0.700 |ddv_scf|^2 =  1.341E-11

      iter #  10 total cpu time :  7166.8 secs   av.it.:  10.5
      thresh= 3.661E-07 alpha_mix =  0.700 |ddv_scf|^2 =  5.087E-12

      iter #  11 total cpu time :  7279.4 secs   av.it.:  10.0
      thresh= 2.256E-07 alpha_mix =  0.700 |ddv_scf|^2 =  1.103E-12

      iter #  12 total cpu time :  7390.4 secs   av.it.:   9.5
      thresh= 1.050E-07 alpha_mix =  0.700 |ddv_scf|^2 =  4.061E-14

      iter #  13 total cpu time :  7516.1 secs   av.it.:  11.4
      thresh= 2.015E-08 alpha_mix =  0.700 |ddv_scf|^2 =  6.104E-14

      iter #  14 total cpu time :  7622.1 secs   av.it.:   9.4
      thresh= 2.471E-08 alpha_mix =  0.700 |ddv_scf|^2 =  5.275E-15

     End of self-consistent calculation

     Convergence has been achieved 


     Representation #   5 mode #   5

     Self-consistent Calculation

      iter #   1 total cpu time :  7705.3 secs   av.it.:   6.0
      thresh= 1.000E-02 alpha_mix =  0.700 |ddv_scf|^2 =  4.465E-07

      iter #   2 total cpu time :  7836.1 secs   av.it.:  11.9
      thresh= 6.682E-05 alpha_mix =  0.700 |ddv_scf|^2 =  8.344E-08

      iter #   3 total cpu time :  7961.5 secs   av.it.:  11.5
      thresh= 2.889E-05 alpha_mix =  0.700 |ddv_scf|^2 =  1.779E-09

      iter #   4 total cpu time :  8083.6 secs   av.it.:  11.0
      thresh= 4.218E-06 alpha_mix =  0.700 |ddv_scf|^2 =  7.873E-11

      iter #   5 total cpu time :  8209.0 secs   av.it.:  11.6
      thresh= 8.873E-07 alpha_mix =  0.700 |ddv_scf|^2 =  3.361E-13

      iter #   6 total cpu time :  8336.5 secs   av.it.:  11.8
      thresh= 5.797E-08 alpha_mix =  0.700 |ddv_scf|^2 =  1.325E-14

      iter #   7 total cpu time :  8458.5 secs   av.it.:  11.0
      thresh= 1.151E-08 alpha_mix =  0.700 |ddv_scf|^2 =  6.512E-16

     End of self-consistent calculation

     Convergence has been achieved 


     Representation #   6 mode #   6

     Self-consistent Calculation

      iter #   1 total cpu time :  8541.4 secs   av.it.:   6.0
      thresh= 1.000E-02 alpha_mix =  0.700 |ddv_scf|^2 =  4.532E-07

      iter #   2 total cpu time :  8672.9 secs   av.it.:  11.9
      thresh= 6.732E-05 alpha_mix =  0.700 |ddv_scf|^2 =  8.426E-08

      iter #   3 total cpu time :  8798.3 secs   av.it.:  11.5
      thresh= 2.903E-05 alpha_mix =  0.700 |ddv_scf|^2 =  1.945E-09

      iter #   4 total cpu time :  8920.6 secs   av.it.:  11.0
      thresh= 4.411E-06 alpha_mix =  0.700 |ddv_scf|^2 =  8.005E-11

      iter #   5 total cpu time :  9048.3 secs   av.it.:  11.7
      thresh= 8.947E-07 alpha_mix =  0.700 |ddv_scf|^2 =  3.224E-13

      iter #   6 total cpu time :  9195.3 secs   av.it.:  11.8
      thresh= 5.678E-08 alpha_mix =  0.700 |ddv_scf|^2 =  1.309E-14

      iter #   7 total cpu time :  9317.9 secs   av.it.:  11.0
      thresh= 1.144E-08 alpha_mix =  0.700 |ddv_scf|^2 =  6.465E-16

     End of self-consistent calculation

     Convergence has been achieved 

     Number of q in the star =    3
     List of q in the star:
          1   0.000000000   0.192450090   0.000000000
          2  -0.166666667  -0.096225045   0.000000000
          3   0.166666667  -0.096225045   0.000000000
     In addition there is the -q list: 
          1  -0.000000000  -0.192450090  -0.000000000
          2   0.166666667   0.096225045  -0.000000000
          3  -0.166666667   0.096225045  -0.000000000

     Diagonalizing the dynamical matrix

     q = (    0.000000000   0.192450090   0.000000000 ) 

 **************************************************************************
     freq (    1) =      -0.257907 [THz] =      -8.602847 [cm-1]
     freq (    2) =       0.681777 [THz] =      22.741625 [cm-1]
     freq (    3) =       1.256447 [THz] =      41.910558 [cm-1]
     freq (    4) =       3.056286 [THz] =     101.946741 [cm-1]
     freq (    5) =       5.357113 [THz] =     178.694057 [cm-1]
     freq (    6) =       5.454676 [THz] =     181.948404 [cm-1]
 **************************************************************************

     Mode symmetry, C_s (m)     point group:

     freq (   1-   1) =         -8.6  [cm-1]   --> A'                 
     freq (   2-   2) =         22.7  [cm-1]   --> A''                
     freq (   3-   3) =         41.9  [cm-1]   --> A'                 
     freq (   4-   4) =        101.9  [cm-1]   --> A'                 
     freq (   5-   5) =        178.7  [cm-1]   --> A''                
     freq (   6-   6) =        181.9  [cm-1]   --> A'                 

     Calculation of q =    0.0000000   0.3849002   0.0000000

     Parallelization info
     --------------------
     sticks:   dense  smooth     PW     G-vecs:    dense   smooth      PW
     Min         324     324     93                49306    49306    7683
     Max         325     325     94                49325    49325    7702
     Sum        1945    1945    559               295873   295873   46125


     Title: 
     default                                                                    


     bravais-lattice index     =            4
     lattice parameter (alat)  =       8.8506  a.u.
     unit-cell volume          =    2563.9136 (a.u.)^3
     number of atoms/cell      =            2
     number of atomic types    =            1
     number of electrons       =        28.00
     number of Kohn-Sham states=           18
     kinetic-energy cutoff     =      90.0000  Ry
     charge density cutoff     =     360.0000  Ry
     Exchange-correlation= PBE
                           (   1   4   3   4   0   0   0)

     celldm(1)=   8.850584  celldm(2)=   0.000000  celldm(3)=   4.270286
     celldm(4)=   0.000000  celldm(5)=   0.000000  celldm(6)=   0.000000

     crystal axes: (cart. coord. in units of alat)
               a(1) = (   1.000000   0.000000   0.000000 )  
               a(2) = (  -0.500000   0.866025   0.000000 )  
               a(3) = (   0.000000   0.000000   4.270286 )  

     reciprocal axes: (cart. coord. in units 2 pi/alat)
               b(1) = (  1.000000  0.577350 -0.000000 )  
               b(2) = (  0.000000  1.154701  0.000000 )  
               b(3) = (  0.000000 -0.000000  0.234176 )  


     PseudoPot. # 1 for Sn read from file:
     ../pseudo/Sn_pbe_v1.uspp.F.UPF
     MD5 check sum: 4cf58ce39ec5d5d420df3dd08604eb00
     Pseudo is Ultrasoft + core correction, Zval = 14.0
     Generated by new atomic code, or converted to UPF format
     Using radial grid of  891 points,  6 beta functions with: 
                l(1) =   0
                l(2) =   0
                l(3) =   1
                l(4) =   1
                l(5) =   2
                l(6) =   2
     Q(r) pseudized with  6 coefficients,  rinner =    1.200   1.200   1.200
                                                       1.200   1.200

     atomic species   valence    mass     pseudopotential
        Sn            14.00   118.71000     Sn( 1.00)

      6 Sym. Ops. (no inversion) found



   Cartesian axes

     site n.     atom                  positions (alat units)
         1           Sn  tau(   1) = (   0.0000000   0.5773503   2.1351428  )
         2           Sn  tau(   2) = (   0.5000000   0.2886751   1.9552503  )

     number of k points=   156  Methfessel-Paxton smearing, width (Ry)=  0.0200

     Number of k-points >= 100: set verbosity='high' to print them.

     Dense  grid:   295873 G-vectors     FFT dimensions: (  54,  54, 240)

     Estimated max dynamical RAM per process >     162.99 MB

     Estimated total dynamical RAM >     977.93 MB
 ----2D----2D----2D----2D----2D----2D----2D----2D----2D----2D----2D----2D
  The code is running with the 2D cutoff
  Please refer to:
  Sohier, T., Calandra, M., & Mauri, F. (2017), 
  Density functional perturbation theory for gated two-dimensional heterostructures:
  Theoretical developments and application to flexural phonons in graphene.
  Physical Review B, 96(7), 75448. https://doi.org/10.1103/PhysRevB.96.075448
 ----2D----2D----2D----2D----2D----2D----2D----2D----2D----2D----2D----2D

     The potential is recalculated from file :
     ../tmp/_ph0/stanene.save/charge-density


     negative rho (up, down):  2.673E-04 0.000E+00
     Starting wfcs are   18 atomic wfcs

     Band Structure Calculation
     Davidson diagonalization with overlap

     ethr =  3.57E-11,  avg # of iterations = 24.8

     total cpu time spent up to now is      705.5 secs

     End of band structure calculation

     Number of k-points >= 100: set verbosity='high' to print the bands.

     the Fermi energy is    -4.2843 ev

     Writing output data file ../tmp/_ph0/stanene.save/

     default                                                                    

     bravais-lattice index     =            4
     lattice parameter (alat)  =       8.8506  a.u.
     unit-cell volume          =    2563.9136 (a.u.)^3
     number of atoms/cell      =            2
     number of atomic types    =            1
     kinetic-energy cut-off    =      90.0000  Ry
     charge density cut-off    =     360.0000  Ry
     convergence threshold     =      1.0E-14
     beta                      =       0.7000
     number of iterations used =            4
     Exchange-correlation= PBE
                           (   1   4   3   4   0   0   0)


     celldm(1)=    8.85058  celldm(2)=    0.00000  celldm(3)=    4.27029
     celldm(4)=    0.00000  celldm(5)=    0.00000  celldm(6)=    0.00000

     crystal axes: (cart. coord. in units of alat)
               a(1) = (  1.0000  0.0000  0.0000 )  
               a(2) = ( -0.5000  0.8660  0.0000 )  
               a(3) = (  0.0000  0.0000  4.2703 )  

     reciprocal axes: (cart. coord. in units 2 pi/alat)
               b(1) = (  1.0000  0.5774 -0.0000 )  
               b(2) = (  0.0000  1.1547  0.0000 )  
               b(3) = (  0.0000 -0.0000  0.2342 )  


     Atoms inside the unit cell: 

     Cartesian axes

     site n.  atom      mass           positions (alat units)
        1     Sn 118.7100   tau(    1) = (    0.00000    0.57735    2.13514  )
        2     Sn 118.7100   tau(    2) = (    0.50000    0.28868    1.95525  )

     Computing dynamical matrix for 
                    q = (   0.0000000   0.3849002   0.0000000 )

      2 Sym.Ops. (no q -> -q+G )


     G cutoff =  714.3099  (  49308 G-vectors)     FFT grid: ( 54, 54,240)

     number of k points=   156  Methfessel-Paxton smearing, width (Ry)=  0.0200

     PseudoPot. # 1 for Sn read from file:
     ../pseudo/Sn_pbe_v1.uspp.F.UPF
     MD5 check sum: 4cf58ce39ec5d5d420df3dd08604eb00
     Pseudo is Ultrasoft + core correction, Zval = 14.0
     Generated by new atomic code, or converted to UPF format
     Using radial grid of  891 points,  6 beta functions with: 
                l(1) =   0
                l(2) =   0
                l(3) =   1
                l(4) =   1
                l(5) =   2
                l(6) =   2
     Q(r) pseudized with  6 coefficients,  rinner =    1.200   1.200   1.200
                                                       1.200   1.200

     Mode symmetry, C_s (m)     point group:


     Atomic displacements:
     There are    6 irreducible representations

     Representation     1      1 modes -  To be done

     Representation     2      1 modes -  To be done

     Representation     3      1 modes -  To be done

     Representation     4      1 modes -  To be done

     Representation     5      1 modes -  To be done

     Representation     6      1 modes -  To be done



     Alpha used in Ewald sum =   2.8000

     negative rho (up, down):  2.673E-04 0.000E+00
     PHONON       :      2h39m CPU      2h42m WALL



     Representation #   1 mode #   1

     Self-consistent Calculation

      iter #   1 total cpu time :  9814.5 secs   av.it.:   6.1
      thresh= 1.000E-02 alpha_mix =  0.700 |ddv_scf|^2 =  1.594E-06

      iter #   2 total cpu time :  9942.4 secs   av.it.:  11.7
      thresh= 1.263E-04 alpha_mix =  0.700 |ddv_scf|^2 =  2.701E-06

      iter #   3 total cpu time : 10057.5 secs   av.it.:  10.3
      thresh= 1.643E-04 alpha_mix =  0.700 |ddv_scf|^2 =  8.148E-07

      iter #   4 total cpu time : 10166.5 secs   av.it.:   9.4
      thresh= 9.027E-05 alpha_mix =  0.700 |ddv_scf|^2 =  5.901E-08

      iter #   5 total cpu time : 10285.7 secs   av.it.:  10.6
      thresh= 2.429E-05 alpha_mix =  0.700 |ddv_scf|^2 =  1.159E-08

      iter #   6 total cpu time : 10405.0 secs   av.it.:  10.7
      thresh= 1.077E-05 alpha_mix =  0.700 |ddv_scf|^2 =  4.755E-10

      iter #   7 total cpu time : 10530.5 secs   av.it.:  11.4
      thresh= 2.181E-06 alpha_mix =  0.700 |ddv_scf|^2 =  3.671E-11

      iter #   8 total cpu time : 10655.5 secs   av.it.:  11.5
      thresh= 6.059E-07 alpha_mix =  0.700 |ddv_scf|^2 =  3.770E-12

      iter #   9 total cpu time : 10776.9 secs   av.it.:  11.1
      thresh= 1.942E-07 alpha_mix =  0.700 |ddv_scf|^2 =  5.244E-13

      iter #  10 total cpu time : 10903.1 secs   av.it.:  11.5
      thresh= 7.242E-08 alpha_mix =  0.700 |ddv_scf|^2 =  1.559E-12

      iter #  11 total cpu time : 11012.2 secs   av.it.:   9.4
      thresh= 1.249E-07 alpha_mix =  0.700 |ddv_scf|^2 =  1.406E-14

      iter #  12 total cpu time : 11136.6 secs   av.it.:  11.3
      thresh= 1.186E-08 alpha_mix =  0.700 |ddv_scf|^2 =  1.168E-14

      iter #  13 total cpu time : 11250.5 secs   av.it.:  10.3
      thresh= 1.081E-08 alpha_mix =  0.700 |ddv_scf|^2 =  3.360E-15

     End of self-consistent calculation

     Convergence has been achieved 


     Representation #   2 mode #   2

     Self-consistent Calculation

      iter #   1 total cpu time : 11334.5 secs   av.it.:   6.1
      thresh= 1.000E-02 alpha_mix =  0.700 |ddv_scf|^2 =  1.590E-06

      iter #   2 total cpu time : 11466.3 secs   av.it.:  11.7
      thresh= 1.261E-04 alpha_mix =  0.700 |ddv_scf|^2 =  2.319E-06

      iter #   3 total cpu time : 11581.2 secs   av.it.:  10.5
      thresh= 1.523E-04 alpha_mix =  0.700 |ddv_scf|^2 =  6.082E-07

      iter #   4 total cpu time : 11700.2 secs   av.it.:   9.5
      thresh= 7.798E-05 alpha_mix =  0.700 |ddv_scf|^2 =  8.346E-08

      iter #   5 total cpu time : 11816.6 secs   av.it.:  10.3
      thresh= 2.889E-05 alpha_mix =  0.700 |ddv_scf|^2 =  1.359E-08

      iter #   6 total cpu time : 11934.6 secs   av.it.:  10.7
      thresh= 1.166E-05 alpha_mix =  0.700 |ddv_scf|^2 =  4.826E-10

      iter #   7 total cpu time : 12060.4 secs   av.it.:  11.4
      thresh= 2.197E-06 alpha_mix =  0.700 |ddv_scf|^2 =  3.834E-11

      iter #   8 total cpu time : 12185.4 secs   av.it.:  11.5
      thresh= 6.192E-07 alpha_mix =  0.700 |ddv_scf|^2 =  2.816E-12

      iter #   9 total cpu time : 12311.0 secs   av.it.:  11.2
      thresh= 1.678E-07 alpha_mix =  0.700 |ddv_scf|^2 =  5.010E-13

      iter #  10 total cpu time : 12436.7 secs   av.it.:  11.4
      thresh= 7.078E-08 alpha_mix =  0.700 |ddv_scf|^2 =  1.155E-12

      iter #  11 total cpu time : 12544.9 secs   av.it.:   9.4
      thresh= 1.075E-07 alpha_mix =  0.700 |ddv_scf|^2 =  3.767E-14

      iter #  12 total cpu time : 12661.3 secs   av.it.:  10.3
      thresh= 1.941E-08 alpha_mix =  0.700 |ddv_scf|^2 =  2.201E-14

      iter #  13 total cpu time : 12770.4 secs   av.it.:   9.7
      thresh= 1.484E-08 alpha_mix =  0.700 |ddv_scf|^2 =  3.083E-15

     End of self-consistent calculation

     Convergence has been achieved 


     Representation #   3 mode #   3

     Self-consistent Calculation

      iter #   1 total cpu time : 12854.9 secs   av.it.:   6.3
      thresh= 1.000E-02 alpha_mix =  0.700 |ddv_scf|^2 =  8.282E-06

      iter #   2 total cpu time : 12979.3 secs   av.it.:  11.4
      thresh= 2.878E-04 alpha_mix =  0.700 |ddv_scf|^2 =  8.939E-05

      iter #   3 total cpu time : 13082.5 secs   av.it.:   9.0
      thresh= 9.454E-04 alpha_mix =  0.700 |ddv_scf|^2 =  2.821E-07

      iter #   4 total cpu time : 13207.2 secs   av.it.:  11.2
      thresh= 5.312E-05 alpha_mix =  0.700 |ddv_scf|^2 =  2.339E-08

      iter #   5 total cpu time : 13329.3 secs   av.it.:  11.1
      thresh= 1.529E-05 alpha_mix =  0.700 |ddv_scf|^2 =  5.871E-09

      iter #   6 total cpu time : 13446.0 secs   av.it.:  10.8
      thresh= 7.662E-06 alpha_mix =  0.700 |ddv_scf|^2 =  1.414E-10

      iter #   7 total cpu time : 13573.5 secs   av.it.:  11.8
      thresh= 1.189E-06 alpha_mix =  0.700 |ddv_scf|^2 =  2.842E-11

      iter #   8 total cpu time : 13696.6 secs   av.it.:  11.3
      thresh= 5.331E-07 alpha_mix =  0.700 |ddv_scf|^2 =  1.861E-11

      iter #   9 total cpu time : 13809.8 secs   av.it.:  10.1
      thresh= 4.313E-07 alpha_mix =  0.700 |ddv_scf|^2 =  7.657E-13

      iter #  10 total cpu time : 13937.0 secs   av.it.:  11.7
      thresh= 8.751E-08 alpha_mix =  0.700 |ddv_scf|^2 =  1.138E-12

      iter #  11 total cpu time : 14046.3 secs   av.it.:   9.9
      thresh= 1.067E-07 alpha_mix =  0.700 |ddv_scf|^2 =  2.609E-13

      iter #  12 total cpu time : 14158.5 secs   av.it.:  10.0
      thresh= 5.108E-08 alpha_mix =  0.700 |ddv_scf|^2 =  3.459E-14

      iter #  13 total cpu time : 14271.6 secs   av.it.:  10.2
      thresh= 1.860E-08 alpha_mix =  0.700 |ddv_scf|^2 =  2.706E-15

     End of self-consistent calculation

     Convergence has been achieved 


     Representation #   4 mode #   4

     Self-consistent Calculation

      iter #   1 total cpu time : 14355.2 secs   av.it.:   6.3
      thresh= 1.000E-02 alpha_mix =  0.700 |ddv_scf|^2 =  8.302E-06

      iter #   2 total cpu time : 14479.1 secs   av.it.:  11.4
      thresh= 2.881E-04 alpha_mix =  0.700 |ddv_scf|^2 =  8.978E-05

      iter #   3 total cpu time : 14581.5 secs   av.it.:   9.0
      thresh= 9.475E-04 alpha_mix =  0.700 |ddv_scf|^2 =  2.803E-07

      iter #   4 total cpu time : 14704.5 secs   av.it.:  11.2
      thresh= 5.294E-05 alpha_mix =  0.700 |ddv_scf|^2 =  2.410E-08

      iter #   5 total cpu time : 14824.8 secs   av.it.:  11.1
      thresh= 1.552E-05 alpha_mix =  0.700 |ddv_scf|^2 =  5.195E-09

      iter #   6 total cpu time : 14943.1 secs   av.it.:  10.8
      thresh= 7.208E-06 alpha_mix =  0.700 |ddv_scf|^2 =  1.492E-10

      iter #   7 total cpu time : 15072.4 secs   av.it.:  11.7
      thresh= 1.222E-06 alpha_mix =  0.700 |ddv_scf|^2 =  2.769E-11

      iter #   8 total cpu time : 15196.3 secs   av.it.:  11.3
      thresh= 5.262E-07 alpha_mix =  0.700 |ddv_scf|^2 =  1.809E-11

      iter #   9 total cpu time : 15309.6 secs   av.it.:  10.1
      thresh= 4.254E-07 alpha_mix =  0.700 |ddv_scf|^2 =  8.314E-13

      iter #  10 total cpu time : 15436.9 secs   av.it.:  11.7
      thresh= 9.118E-08 alpha_mix =  0.700 |ddv_scf|^2 =  1.345E-12

      iter #  11 total cpu time : 15545.5 secs   av.it.:   9.8
      thresh= 1.160E-07 alpha_mix =  0.700 |ddv_scf|^2 =  2.461E-13

      iter #  12 total cpu time : 15658.4 secs   av.it.:  10.0
      thresh= 4.961E-08 alpha_mix =  0.700 |ddv_scf|^2 =  3.076E-14

      iter #  13 total cpu time : 15773.5 secs   av.it.:  10.3
      thresh= 1.754E-08 alpha_mix =  0.700 |ddv_scf|^2 =  2.720E-15

     End of self-consistent calculation

     Convergence has been achieved 


     Representation #   5 mode #   5

     Self-consistent Calculation

      iter #   1 total cpu time : 15854.7 secs   av.it.:   6.0
      thresh= 1.000E-02 alpha_mix =  0.700 |ddv_scf|^2 =  5.165E-07

      iter #   2 total cpu time : 15985.4 secs   av.it.:  11.9
      thresh= 7.187E-05 alpha_mix =  0.700 |ddv_scf|^2 =  1.330E-07

      iter #   3 total cpu time : 16110.7 secs   av.it.:  11.3
      thresh= 3.647E-05 alpha_mix =  0.700 |ddv_scf|^2 =  2.170E-09

      iter #   4 total cpu time : 16230.6 secs   av.it.:  11.0
      thresh= 4.658E-06 alpha_mix =  0.700 |ddv_scf|^2 =  8.352E-11

      iter #   5 total cpu time : 16354.5 secs   av.it.:  11.3
      thresh= 9.139E-07 alpha_mix =  0.700 |ddv_scf|^2 =  3.427E-13

      iter #   6 total cpu time : 16481.8 secs   av.it.:  11.8
      thresh= 5.854E-08 alpha_mix =  0.700 |ddv_scf|^2 =  9.853E-15

     End of self-consistent calculation

     Convergence has been achieved 


     Representation #   6 mode #   6

     Self-consistent Calculation

      iter #   1 total cpu time : 16564.4 secs   av.it.:   6.0
      thresh= 1.000E-02 alpha_mix =  0.700 |ddv_scf|^2 =  5.260E-07

      iter #   2 total cpu time : 16693.4 secs   av.it.:  11.9
      thresh= 7.253E-05 alpha_mix =  0.700 |ddv_scf|^2 =  1.341E-07

      iter #   3 total cpu time : 16819.0 secs   av.it.:  11.3
      thresh= 3.662E-05 alpha_mix =  0.700 |ddv_scf|^2 =  2.447E-09

      iter #   4 total cpu time : 16938.5 secs   av.it.:  11.0
      thresh= 4.947E-06 alpha_mix =  0.700 |ddv_scf|^2 =  8.416E-11

      iter #   5 total cpu time : 17062.1 secs   av.it.:  11.3
      thresh= 9.174E-07 alpha_mix =  0.700 |ddv_scf|^2 =  3.320E-13

      iter #   6 total cpu time : 17190.2 secs   av.it.:  11.8
      thresh= 5.762E-08 alpha_mix =  0.700 |ddv_scf|^2 =  9.849E-15

     End of self-consistent calculation

     Convergence has been achieved 

     Number of q in the star =    3
     List of q in the star:
          1   0.000000000   0.384900179   0.000000000
          2  -0.333333333  -0.192450090   0.000000000
          3   0.333333333  -0.192450090   0.000000000
     In addition there is the -q list: 
          1  -0.000000000  -0.384900179  -0.000000000
          2   0.333333333   0.192450090  -0.000000000
          3  -0.333333333   0.192450090  -0.000000000

     Diagonalizing the dynamical matrix

     q = (    0.000000000   0.384900179   0.000000000 ) 

 **************************************************************************
     freq (    1) =       0.557079 [THz] =      18.582169 [cm-1]
     freq (    2) =       0.950717 [THz] =      31.712520 [cm-1]
     freq (    3) =       1.377147 [THz] =      45.936681 [cm-1]
     freq (    4) =       3.509454 [THz] =     117.062791 [cm-1]
     freq (    5) =       5.067268 [THz] =     169.025873 [cm-1]
     freq (    6) =       5.276830 [THz] =     176.016119 [cm-1]
 **************************************************************************

     Mode symmetry, C_s (m)     point group:

     freq (   1-   1) =         18.6  [cm-1]   --> A'                 
     freq (   2-   2) =         31.7  [cm-1]   --> A''                
     freq (   3-   3) =         45.9  [cm-1]   --> A'                 
     freq (   4-   4) =        117.1  [cm-1]   --> A'                 
     freq (   5-   5) =        169.0  [cm-1]   --> A'                 
     freq (   6-   6) =        176.0  [cm-1]   --> A''                

     Calculation of q =    0.0000000  -0.5773503   0.0000000

     Parallelization info
     --------------------
     sticks:   dense  smooth     PW     G-vecs:    dense   smooth      PW
     Min         324     324     97                49306    49306    7911
     Max         325     325     98                49325    49325    7922
     Sum        1945    1945    583               295873   295873   47493


     Title: 
     default                                                                    


     bravais-lattice index     =            4
     lattice parameter (alat)  =       8.8506  a.u.
     unit-cell volume          =    2563.9136 (a.u.)^3
     number of atoms/cell      =            2
     number of atomic types    =            1
     number of electrons       =        28.00
     number of Kohn-Sham states=           18
     kinetic-energy cutoff     =      90.0000  Ry
     charge density cutoff     =     360.0000  Ry
     Exchange-correlation= PBE
                           (   1   4   3   4   0   0   0)

     celldm(1)=   8.850584  celldm(2)=   0.000000  celldm(3)=   4.270286
     celldm(4)=   0.000000  celldm(5)=   0.000000  celldm(6)=   0.000000

     crystal axes: (cart. coord. in units of alat)
               a(1) = (   1.000000   0.000000   0.000000 )  
               a(2) = (  -0.500000   0.866025   0.000000 )  
               a(3) = (   0.000000   0.000000   4.270286 )  

     reciprocal axes: (cart. coord. in units 2 pi/alat)
               b(1) = (  1.000000  0.577350 -0.000000 )  
               b(2) = (  0.000000  1.154701  0.000000 )  
               b(3) = (  0.000000 -0.000000  0.234176 )  


     PseudoPot. # 1 for Sn read from file:
     ../pseudo/Sn_pbe_v1.uspp.F.UPF
     MD5 check sum: 4cf58ce39ec5d5d420df3dd08604eb00
     Pseudo is Ultrasoft + core correction, Zval = 14.0
     Generated by new atomic code, or converted to UPF format
     Using radial grid of  891 points,  6 beta functions with: 
                l(1) =   0
                l(2) =   0
                l(3) =   1
                l(4) =   1
                l(5) =   2
                l(6) =   2
     Q(r) pseudized with  6 coefficients,  rinner =    1.200   1.200   1.200
                                                       1.200   1.200

     atomic species   valence    mass     pseudopotential
        Sn            14.00   118.71000     Sn( 1.00)

      6 Sym. Ops. (no inversion) found



   Cartesian axes

     site n.     atom                  positions (alat units)
         1           Sn  tau(   1) = (   0.0000000   0.5773503   2.1351428  )
         2           Sn  tau(   2) = (   0.5000000   0.2886751   1.9552503  )

     number of k points=    86  Methfessel-Paxton smearing, width (Ry)=  0.0200
                       cart. coord. in units 2pi/alat
        k(    1) = (   0.0000000   0.0000000   0.0000000), wk =   0.0138889
        k(    2) = (   0.0000000  -0.5773503   0.0000000), wk =   0.0000000
        k(    3) = (   0.0000000   0.0962250   0.0000000), wk =   0.0277778
        k(    4) = (   0.0000000  -0.4811252   0.0000000), wk =   0.0000000
        k(    5) = (   0.0000000   0.1924501   0.0000000), wk =   0.0277778
        k(    6) = (   0.0000000  -0.3849002   0.0000000), wk =   0.0000000
        k(    7) = (   0.0000000   0.2886751   0.0000000), wk =   0.0277778
        k(    8) = (   0.0000000  -0.2886751   0.0000000), wk =   0.0000000
        k(    9) = (   0.0000000   0.3849002   0.0000000), wk =   0.0277778
        k(   10) = (   0.0000000  -0.1924501   0.0000000), wk =   0.0000000
        k(   11) = (   0.0000000   0.4811252   0.0000000), wk =   0.0277778
        k(   12) = (   0.0000000  -0.0962250   0.0000000), wk =   0.0000000
        k(   13) = (   0.0000000  -0.5773503   0.0000000), wk =   0.0138889
        k(   14) = (   0.0000000  -1.1547005   0.0000000), wk =   0.0000000
        k(   15) = (   0.0833333   0.1443376   0.0000000), wk =   0.0555556
        k(   16) = (   0.0833333  -0.4330127   0.0000000), wk =   0.0000000
        k(   17) = (   0.0833333   0.2405626   0.0000000), wk =   0.0555556
        k(   18) = (   0.0833333  -0.3367877   0.0000000), wk =   0.0000000
        k(   19) = (   0.0833333   0.3367877   0.0000000), wk =   0.0555556
        k(   20) = (   0.0833333  -0.2405626   0.0000000), wk =   0.0000000
        k(   21) = (   0.0833333   0.4330127   0.0000000), wk =   0.0555556
        k(   22) = (   0.0833333  -0.1443376   0.0000000), wk =   0.0000000
        k(   23) = (   0.0833333   0.5292377   0.0000000), wk =   0.0555556
        k(   24) = (   0.0833333  -0.0481125   0.0000000), wk =   0.0000000
        k(   25) = (   0.1666667   0.2886751   0.0000000), wk =   0.0555556
        k(   26) = (   0.1666667  -0.2886751   0.0000000), wk =   0.0000000
        k(   27) = (   0.1666667   0.3849002   0.0000000), wk =   0.0555556
        k(   28) = (   0.1666667  -0.1924501   0.0000000), wk =   0.0000000
        k(   29) = (   0.1666667   0.4811252   0.0000000), wk =   0.0555556
        k(   30) = (   0.1666667  -0.0962250   0.0000000), wk =   0.0000000
        k(   31) = (   0.1666667   0.5773503   0.0000000), wk =   0.0277778
        k(   32) = (   0.1666667   0.0000000   0.0000000), wk =   0.0000000
        k(   33) = (   0.2500000   0.4330127   0.0000000), wk =   0.0555556
        k(   34) = (   0.2500000  -0.1443376   0.0000000), wk =   0.0000000
        k(   35) = (   0.2500000   0.5292377   0.0000000), wk =   0.0555556
        k(   36) = (   0.2500000  -0.0481125   0.0000000), wk =   0.0000000
        k(   37) = (   0.3333333   0.5773503   0.0000000), wk =   0.0277778
        k(   38) = (   0.3333333   0.0000000   0.0000000), wk =   0.0000000
        k(   39) = (  -0.0833333  -0.0481125   0.0000000), wk =   0.0555556
        k(   40) = (  -0.0833333  -0.6254628   0.0000000), wk =   0.0000000
        k(   41) = (  -0.1666667  -0.0962250   0.0000000), wk =   0.0555556
        k(   42) = (  -0.1666667  -0.6735753   0.0000000), wk =   0.0000000
        k(   43) = (  -0.2500000  -0.1443376   0.0000000), wk =   0.0555556
        k(   44) = (  -0.2500000  -0.7216878   0.0000000), wk =   0.0000000
        k(   45) = (  -0.3333333  -0.1924501   0.0000000), wk =   0.0555556
        k(   46) = (  -0.3333333  -0.7698004   0.0000000), wk =   0.0000000
        k(   47) = (  -0.4166667  -0.2405626   0.0000000), wk =   0.0555556
        k(   48) = (  -0.4166667  -0.8179129   0.0000000), wk =   0.0000000
        k(   49) = (   0.5000000   0.2886751   0.0000000), wk =   0.0277778
        k(   50) = (   0.5000000  -0.2886751   0.0000000), wk =   0.0000000
        k(   51) = (  -0.1666667  -0.0000000   0.0000000), wk =   0.0277778
        k(   52) = (  -0.1666667  -0.5773503   0.0000000), wk =   0.0000000
        k(   53) = (  -0.2500000  -0.0481125   0.0000000), wk =   0.0555556
        k(   54) = (  -0.2500000  -0.6254628   0.0000000), wk =   0.0000000
        k(   55) = (   0.1666667  -0.1924501   0.0000000), wk =   0.0555556
        k(   56) = (   0.1666667  -0.7698004   0.0000000), wk =   0.0000000
        k(   57) = (  -0.3333333  -0.0962250   0.0000000), wk =   0.0555556
        k(   58) = (  -0.3333333  -0.6735753   0.0000000), wk =   0.0000000
        k(   59) = (   0.2500000  -0.2405626   0.0000000), wk =   0.0555556
        k(   60) = (   0.2500000  -0.8179129   0.0000000), wk =   0.0000000
        k(   61) = (  -0.4166667  -0.1443376   0.0000000), wk =   0.0555556
        k(   62) = (  -0.4166667  -0.7216878   0.0000000), wk =   0.0000000
        k(   63) = (   0.3333333  -0.2886751   0.0000000), wk =   0.0555556
        k(   64) = (   0.3333333  -0.8660254   0.0000000), wk =   0.0000000
        k(   65) = (  -0.5000000  -0.1924501   0.0000000), wk =   0.0555556
        k(   66) = (  -0.5000000  -0.7698004   0.0000000), wk =   0.0000000
        k(   67) = (   0.4166667  -0.3367877   0.0000000), wk =   0.0555556
        k(   68) = (   0.4166667  -0.9141379   0.0000000), wk =   0.0000000
        k(   69) = (  -0.3333333  -0.0000000   0.0000000), wk =   0.0277778
        k(   70) = (  -0.3333333  -0.5773503   0.0000000), wk =   0.0000000
        k(   71) = (  -0.4166667  -0.0481125   0.0000000), wk =   0.0555556
        k(   72) = (  -0.4166667  -0.6254628   0.0000000), wk =   0.0000000
        k(   73) = (   0.2500000  -0.3367877   0.0000000), wk =   0.0555556
        k(   74) = (   0.2500000  -0.9141379   0.0000000), wk =   0.0000000
        k(   75) = (  -0.5000000  -0.0962250   0.0000000), wk =   0.0555556
        k(   76) = (  -0.5000000  -0.6735753   0.0000000), wk =   0.0000000
        k(   77) = (   0.3333333  -0.3849002   0.0000000), wk =   0.0555556
        k(   78) = (   0.3333333  -0.9622504   0.0000000), wk =   0.0000000
        k(   79) = (  -0.5833333  -0.1443376   0.0000000), wk =   0.0555556
        k(   80) = (  -0.5833333  -0.7216878   0.0000000), wk =   0.0000000
        k(   81) = (  -0.5000000   0.0000000   0.0000000), wk =   0.0277778
        k(   82) = (  -0.5000000  -0.5773503   0.0000000), wk =   0.0000000
        k(   83) = (  -0.5833333  -0.0481125   0.0000000), wk =   0.0555556
        k(   84) = (  -0.5833333  -0.6254628   0.0000000), wk =   0.0000000
        k(   85) = (   0.3333333  -0.4811252   0.0000000), wk =   0.0555556
        k(   86) = (   0.3333333  -1.0584755   0.0000000), wk =   0.0000000

     Dense  grid:   295873 G-vectors     FFT dimensions: (  54,  54, 240)

     Estimated max dynamical RAM per process >     163.00 MB

     Estimated total dynamical RAM >     978.01 MB
 ----2D----2D----2D----2D----2D----2D----2D----2D----2D----2D----2D----2D
  The code is running with the 2D cutoff
  Please refer to:
  Sohier, T., Calandra, M., & Mauri, F. (2017), 
  Density functional perturbation theory for gated two-dimensional heterostructures:
  Theoretical developments and application to flexural phonons in graphene.
  Physical Review B, 96(7), 75448. https://doi.org/10.1103/PhysRevB.96.075448
 ----2D----2D----2D----2D----2D----2D----2D----2D----2D----2D----2D----2D

     The potential is recalculated from file :
     ../tmp/_ph0/stanene.save/charge-density


     negative rho (up, down):  2.673E-04 0.000E+00
     Starting wfcs are   18 atomic wfcs

     Band Structure Calculation
     Davidson diagonalization with overlap

     ethr =  3.57E-11,  avg # of iterations = 24.4

     total cpu time spent up to now is      896.3 secs

     End of band structure calculation

          k = 0.0000 0.0000 0.0000 ( 37045 PWs)   bands (ev):

   -25.6548 -25.6548 -25.5768 -25.5768 -25.5621 -25.4922 -25.3497 -25.3497
   -25.2935 -25.2935 -13.5055  -7.4085  -4.5360  -4.5360  -4.0773  -2.2047
    -1.0414  -1.0414

          k = 0.0000-0.5774 0.0000 ( 36950 PWs)   bands (ev):

   -25.6783 -25.6600 -25.6372 -25.5297 -25.5287 -25.4239 -25.4230 -25.3898
   -25.2903 -25.2313 -11.9599 -10.4366  -5.7507  -5.2200  -3.6700  -2.7694
     0.3264   1.2536

          k = 0.0000 0.0962 0.0000 ( 37017 PWs)   bands (ev):

   -25.6582 -25.6577 -25.5824 -25.5722 -25.5543 -25.4872 -25.3587 -25.3582
   -25.2890 -25.2854 -13.4467  -7.5090  -5.2127  -4.6591  -3.3335  -2.2031
    -1.1272  -0.8262

          k = 0.0000-0.4811 0.0000 ( 36935 PWs)   bands (ev):

   -25.6775 -25.6641 -25.6305 -25.5310 -25.5291 -25.4222 -25.4205 -25.3970
   -25.2871 -25.2340 -12.1927 -10.1052  -5.6925  -5.3537  -3.5125  -2.6911
     0.1067   1.1909

          k = 0.0000 0.1925 0.0000 ( 36989 PWs)   bands (ev):

   -25.6647 -25.6640 -25.5925 -25.5613 -25.5415 -25.4727 -25.3768 -25.3760
   -25.2820 -25.2696 -13.2719  -7.9052  -5.7185  -4.9450  -2.7690  -2.2346
    -0.9800  -0.2824

          k = 0.0000-0.3849 0.0000 ( 36965 PWs)   bands (ev):

   -25.6749 -25.6688 -25.6178 -25.5380 -25.5289 -25.4288 -25.4107 -25.4041
   -25.2814 -25.2418 -12.6084  -9.4062  -5.6089  -5.5230  -3.1862  -2.4940
    -0.2076   0.7160

          k = 0.0000 0.2887 0.0000 ( 36997 PWs)   bands (ev):

   -25.6703 -25.6691 -25.6047 -25.5488 -25.5323 -25.4509 -25.3954 -25.3937
   -25.2790 -25.2542 -12.9869  -8.6095  -5.7899  -5.2604  -2.8618  -2.3102
    -0.4901   0.2996

          k = 0.0000-0.2887 0.0000 ( 36997 PWs)   bands (ev):

   -25.6703 -25.6691 -25.6047 -25.5488 -25.5323 -25.4509 -25.3954 -25.3937
   -25.2790 -25.2542 -12.9869  -8.6095  -5.7899  -5.2604  -2.8618  -2.3102
    -0.4901   0.2996

          k = 0.0000 0.3849 0.0000 ( 36965 PWs)   bands (ev):

   -25.6749 -25.6688 -25.6178 -25.5380 -25.5289 -25.4288 -25.4107 -25.4041
   -25.2814 -25.2418 -12.6084  -9.4062  -5.6089  -5.5230  -3.1862  -2.4940
    -0.2076   0.7160

          k = 0.0000-0.1925 0.0000 ( 36989 PWs)   bands (ev):

   -25.6647 -25.6640 -25.5925 -25.5613 -25.5415 -25.4727 -25.3768 -25.3760
   -25.2820 -25.2696 -13.2719  -7.9052  -5.7185  -4.9450  -2.7690  -2.2346
    -0.9800  -0.2824

          k = 0.0000 0.4811 0.0000 ( 36935 PWs)   bands (ev):

   -25.6775 -25.6641 -25.6305 -25.5310 -25.5291 -25.4222 -25.4205 -25.3970
   -25.2871 -25.2340 -12.1927 -10.1052  -5.6925  -5.3537  -3.5125  -2.6911
     0.1067   1.1909

          k = 0.0000-0.0962 0.0000 ( 37017 PWs)   bands (ev):

   -25.6582 -25.6577 -25.5824 -25.5722 -25.5543 -25.4872 -25.3587 -25.3582
   -25.2890 -25.2854 -13.4467  -7.5090  -5.2127  -4.6591  -3.3335  -2.2031
    -1.1272  -0.8262

          k = 0.0000-0.5774 0.0000 ( 36950 PWs)   bands (ev):

   -25.6783 -25.6600 -25.6372 -25.5297 -25.5287 -25.4239 -25.4230 -25.3898
   -25.2903 -25.2313 -11.9599 -10.4366  -5.7507  -5.2200  -3.6700  -2.7694
     0.3264   1.2536

          k = 0.0000-1.1547 0.0000 ( 37045 PWs)   bands (ev):

   -25.6548 -25.6548 -25.5768 -25.5768 -25.5621 -25.4922 -25.3497 -25.3497
   -25.2935 -25.2935 -13.5055  -7.4085  -4.5360  -4.5360  -4.0773  -2.2047
    -1.0414  -1.0414

          k = 0.0833 0.1443 0.0000 ( 37015 PWs)   bands (ev):

   -25.6630 -25.6624 -25.5890 -25.5662 -25.5433 -25.4778 -25.3723 -25.3703
   -25.2852 -25.2726 -13.3299  -7.7609  -5.6131  -4.9136  -2.7389  -2.2289
    -1.2366  -0.3510

          k = 0.0833-0.4330 0.0000 ( 36943 PWs)   bands (ev):

   -25.6818 -25.6636 -25.6254 -25.5366 -25.5173 -25.4275 -25.4168 -25.4016
   -25.2941 -25.2289 -12.3547  -9.8216  -5.9288  -5.3500  -3.2912  -2.3112
    -0.0275   0.5971

          k = 0.0833 0.2406 0.0000 ( 36999 PWs)   bands (ev):

   -25.6707 -25.6661 -25.5996 -25.5567 -25.5293 -25.4609 -25.3896 -25.3871
   -25.2836 -25.2556 -13.0995  -8.3254  -5.7770  -5.2903  -2.4828  -2.2326
    -1.0068   0.1277

          k = 0.0833-0.3368 0.0000 ( 36982 PWs)   bands (ev):

   -25.6775 -25.6668 -25.6124 -25.5461 -25.5198 -25.4405 -25.4052 -25.4011
   -25.2867 -25.2402 -12.7649  -9.0742  -5.7434  -5.5510  -2.8502  -2.2095
    -0.4208   0.3396

          k = 0.0833 0.3368 0.0000 ( 36982 PWs)   bands (ev):

   -25.6775 -25.6668 -25.6124 -25.5461 -25.5198 -25.4405 -25.4052 -25.4011
   -25.2867 -25.2402 -12.7649  -9.0742  -5.7434  -5.5510  -2.8502  -2.2095
    -0.4208   0.3396

          k = 0.0833-0.2406 0.0000 ( 36999 PWs)   bands (ev):

   -25.6707 -25.6661 -25.5996 -25.5567 -25.5293 -25.4609 -25.3896 -25.3871
   -25.2836 -25.2556 -13.0995  -8.3254  -5.7770  -5.2903  -2.4828  -2.2326
    -1.0068   0.1277

          k = 0.0833 0.4330 0.0000 ( 36943 PWs)   bands (ev):

   -25.6818 -25.6636 -25.6254 -25.5366 -25.5173 -25.4275 -25.4168 -25.4016
   -25.2941 -25.2289 -12.3547  -9.8216  -5.9288  -5.3500  -3.2912  -2.3112
    -0.0275   0.5971

          k = 0.0833-0.1443 0.0000 ( 37015 PWs)   bands (ev):

   -25.6630 -25.6624 -25.5890 -25.5662 -25.5433 -25.4778 -25.3723 -25.3703
   -25.2852 -25.2726 -13.3299  -7.7609  -5.6131  -4.9136  -2.7389  -2.2289
    -1.2366  -0.3510

          k = 0.0833 0.5292 0.0000 ( 36963 PWs)   bands (ev):

   -25.6838 -25.6583 -25.6359 -25.5291 -25.5202 -25.4262 -25.4234 -25.3909
   -25.3015 -25.2229 -11.9796 -10.3795  -6.0532  -5.0991  -3.6381  -2.3961
     0.2161   0.8162

          k = 0.0833-0.0481 0.0000 ( 37017 PWs)   bands (ev):

   -25.6582 -25.6577 -25.5824 -25.5722 -25.5543 -25.4872 -25.3587 -25.3582
   -25.2890 -25.2854 -13.4467  -7.5090  -5.2127  -4.6591  -3.3335  -2.2031
    -1.1272  -0.8262

          k = 0.1667 0.2887 0.0000 ( 37021 PWs)   bands (ev):

   -25.6793 -25.6656 -25.6102 -25.5501 -25.5119 -25.4481 -25.4032 -25.3993
   -25.2916 -25.2374 -12.8178  -8.9388  -5.7887  -5.6460  -2.6574  -1.6989
    -0.9753   0.2460

          k = 0.1667-0.2887 0.0000 ( 37021 PWs)   bands (ev):

   -25.6793 -25.6656 -25.6102 -25.5501 -25.5119 -25.4481 -25.4032 -25.3993
   -25.2916 -25.2374 -12.8178  -8.9388  -5.7887  -5.6460  -2.6574  -1.6989
    -0.9753   0.2460

          k = 0.1667 0.3849 0.0000 ( 36979 PWs)   bands (ev):

   -25.6870 -25.6623 -25.6224 -25.5403 -25.4991 -25.4400 -25.4146 -25.4025
   -25.3043 -25.2215 -12.4411  -9.6251  -6.2019  -5.3722  -3.0807  -1.5007
    -0.3488   0.2299

          k = 0.1667-0.1925 0.0000 ( 36999 PWs)   bands (ev):

   -25.6707 -25.6661 -25.5996 -25.5567 -25.5293 -25.4609 -25.3896 -25.3871
   -25.2836 -25.2556 -13.0995  -8.3254  -5.7770  -5.2903  -2.4828  -2.2326
    -1.0068   0.1277

          k = 0.1667 0.4811 0.0000 ( 36940 PWs)   bands (ev):

   -25.6921 -25.6570 -25.6335 -25.5296 -25.4974 -25.4364 -25.4235 -25.3931
   -25.3187 -25.2109 -12.0163 -10.2626  -6.4605  -5.0320  -3.5379  -1.5121
     0.0117   0.3617

          k = 0.1667-0.0962 0.0000 ( 36989 PWs)   bands (ev):

   -25.6647 -25.6640 -25.5925 -25.5613 -25.5415 -25.4727 -25.3768 -25.3760
   -25.2820 -25.2696 -13.2719  -7.9052  -5.7185  -4.9450  -2.7690  -2.2346
    -0.9800  -0.2824

          k = 0.1667 0.5774 0.0000 ( 36920 PWs)   bands (ev):

   -25.6938 -25.6531 -25.6394 -25.5236 -25.5005 -25.4314 -25.4302 -25.3860
   -25.3264 -25.2072 -11.7615 -10.5926  -6.5475  -4.8301  -3.7833  -1.5260
    -0.0704   0.8219

          k = 0.1667 0.0000 0.0000 ( 37015 PWs)   bands (ev):

   -25.6630 -25.6624 -25.5890 -25.5662 -25.5433 -25.4778 -25.3723 -25.3703
   -25.2852 -25.2726 -13.3299  -7.7609  -5.6131  -4.9136  -2.7389  -2.2289
    -1.2366  -0.3510

          k = 0.2500 0.4330 0.0000 ( 36951 PWs)   bands (ev):

   -25.6955 -25.6567 -25.6325 -25.5299 -25.4793 -25.4485 -25.4235 -25.3941
   -25.3259 -25.2061 -12.0335 -10.2023  -6.6290  -5.0242  -3.4795  -0.6865
    -0.1154  -0.0523

          k = 0.2500-0.1443 0.0000 ( 36997 PWs)   bands (ev):

   -25.6703 -25.6691 -25.6047 -25.5488 -25.5323 -25.4509 -25.3954 -25.3937
   -25.2790 -25.2542 -12.9869  -8.6095  -5.7899  -5.2604  -2.8618  -2.3102
    -0.4901   0.2996

          k = 0.2500 0.5292 0.0000 ( 36921 PWs)   bands (ev):

   -25.7004 -25.6511 -25.6404 -25.5205 -25.4736 -25.4458 -25.4337 -25.3825
   -25.3454 -25.1976 -11.6126 -10.7140  -6.8568  -4.6587  -3.8798  -0.4609
    -0.3109   0.6556

          k = 0.2500-0.0481 0.0000 ( 36999 PWs)   bands (ev):

   -25.6707 -25.6661 -25.5996 -25.5567 -25.5293 -25.4609 -25.3896 -25.3871
   -25.2836 -25.2556 -13.0995  -8.3254  -5.7770  -5.2903  -2.4828  -2.2326
    -1.0068   0.1277

          k = 0.3333 0.5774 0.0000 ( 36894 PWs)   bands (ev):

   -25.7035 -25.6460 -25.6460 -25.5162 -25.4522 -25.4495 -25.4495 -25.3675
   -25.3675 -25.1928 -11.1696 -11.1696  -6.9997  -4.2632  -4.2631  -0.4881
     0.5545   0.5546

          k = 0.3333 0.0000 0.0000 ( 37021 PWs)   bands (ev):

   -25.6793 -25.6656 -25.6102 -25.5501 -25.5119 -25.4481 -25.4032 -25.3993
   -25.2916 -25.2374 -12.8178  -8.9388  -5.7887  -5.6460  -2.6574  -1.6989
    -0.9753   0.2460

          k =-0.0833-0.0481 0.0000 ( 37017 PWs)   bands (ev):

   -25.6582 -25.6577 -25.5824 -25.5722 -25.5543 -25.4872 -25.3587 -25.3582
   -25.2890 -25.2854 -13.4467  -7.5090  -5.2127  -4.6591  -3.3335  -2.2031
    -1.1272  -0.8262

          k =-0.0833-0.6255 0.0000 ( 36963 PWs)   bands (ev):

   -25.6838 -25.6583 -25.6359 -25.5291 -25.5202 -25.4262 -25.4234 -25.3909
   -25.3015 -25.2229 -11.9796 -10.3795  -6.0532  -5.0991  -3.6381  -2.3961
     0.2161   0.8162

          k =-0.1667-0.0962 0.0000 ( 36989 PWs)   bands (ev):

   -25.6647 -25.6640 -25.5925 -25.5613 -25.5415 -25.4727 -25.3768 -25.3760
   -25.2820 -25.2696 -13.2719  -7.9052  -5.7185  -4.9450  -2.7690  -2.2346
    -0.9800  -0.2824

          k =-0.1667-0.6736 0.0000 ( 36940 PWs)   bands (ev):

   -25.6921 -25.6570 -25.6335 -25.5296 -25.4974 -25.4364 -25.4235 -25.3931
   -25.3187 -25.2109 -12.0163 -10.2626  -6.4605  -5.0320  -3.5379  -1.5121
     0.0117   0.3617

          k =-0.2500-0.1443 0.0000 ( 36997 PWs)   bands (ev):

   -25.6703 -25.6691 -25.6047 -25.5488 -25.5323 -25.4509 -25.3954 -25.3937
   -25.2790 -25.2542 -12.9869  -8.6095  -5.7899  -5.2604  -2.8618  -2.3102
    -0.4901   0.2996

          k =-0.2500-0.7217 0.0000 ( 36951 PWs)   bands (ev):

   -25.6955 -25.6567 -25.6325 -25.5299 -25.4793 -25.4485 -25.4235 -25.3941
   -25.3259 -25.2061 -12.0335 -10.2023  -6.6290  -5.0242  -3.4795  -0.6865
    -0.1154  -0.0523

          k =-0.3333-0.1925 0.0000 ( 36965 PWs)   bands (ev):

   -25.6749 -25.6688 -25.6178 -25.5380 -25.5289 -25.4288 -25.4107 -25.4041
   -25.2814 -25.2418 -12.6084  -9.4062  -5.6089  -5.5230  -3.1862  -2.4940
    -0.2076   0.7160

          k =-0.3333-0.7698 0.0000 ( 36940 PWs)   bands (ev):

   -25.6921 -25.6570 -25.6335 -25.5296 -25.4974 -25.4364 -25.4235 -25.3931
   -25.3187 -25.2109 -12.0163 -10.2626  -6.4605  -5.0320  -3.5379  -1.5121
     0.0117   0.3617

          k =-0.4167-0.2406 0.0000 ( 36935 PWs)   bands (ev):

   -25.6775 -25.6641 -25.6305 -25.5310 -25.5291 -25.4222 -25.4205 -25.3970
   -25.2871 -25.2340 -12.1927 -10.1052  -5.6925  -5.3537  -3.5125  -2.6911
     0.1067   1.1909

          k =-0.4167-0.8179 0.0000 ( 36963 PWs)   bands (ev):

   -25.6838 -25.6583 -25.6359 -25.5291 -25.5202 -25.4262 -25.4234 -25.3909
   -25.3015 -25.2229 -11.9796 -10.3795  -6.0532  -5.0991  -3.6381  -2.3961
     0.2161   0.8162

          k = 0.5000 0.2887 0.0000 ( 36950 PWs)   bands (ev):

   -25.6783 -25.6600 -25.6372 -25.5297 -25.5287 -25.4239 -25.4230 -25.3898
   -25.2903 -25.2313 -11.9599 -10.4366  -5.7507  -5.2200  -3.6700  -2.7694
     0.3264   1.2536

          k = 0.5000-0.2887 0.0000 ( 36950 PWs)   bands (ev):

   -25.6783 -25.6600 -25.6372 -25.5297 -25.5287 -25.4239 -25.4230 -25.3898
   -25.2903 -25.2313 -11.9599 -10.4366  -5.7507  -5.2200  -3.6700  -2.7694
     0.3264   1.2536

          k =-0.1667-0.0000 0.0000 ( 37015 PWs)   bands (ev):

   -25.6630 -25.6624 -25.5890 -25.5662 -25.5433 -25.4778 -25.3723 -25.3703
   -25.2852 -25.2726 -13.3299  -7.7609  -5.6131  -4.9136  -2.7389  -2.2289
    -1.2366  -0.3510

          k =-0.1667-0.5774 0.0000 ( 36920 PWs)   bands (ev):

   -25.6938 -25.6531 -25.6394 -25.5236 -25.5005 -25.4314 -25.4302 -25.3860
   -25.3264 -25.2072 -11.7615 -10.5926  -6.5475  -4.8301  -3.7833  -1.5260
    -0.0704   0.8219

          k =-0.2500-0.0481 0.0000 ( 36999 PWs)   bands (ev):

   -25.6707 -25.6661 -25.5996 -25.5567 -25.5293 -25.4609 -25.3896 -25.3871
   -25.2836 -25.2556 -13.0995  -8.3254  -5.7770  -5.2903  -2.4828  -2.2326
    -1.0068   0.1277

          k =-0.2500-0.6255 0.0000 ( 36921 PWs)   bands (ev):

   -25.7004 -25.6511 -25.6404 -25.5205 -25.4736 -25.4458 -25.4337 -25.3825
   -25.3454 -25.1976 -11.6126 -10.7140  -6.8568  -4.6587  -3.8798  -0.4609
    -0.3109   0.6556

          k = 0.1667-0.1925 0.0000 ( 36999 PWs)   bands (ev):

   -25.6707 -25.6661 -25.5996 -25.5567 -25.5293 -25.4609 -25.3896 -25.3871
   -25.2836 -25.2556 -13.0995  -8.3254  -5.7770  -5.2903  -2.4828  -2.2326
    -1.0068   0.1277

          k = 0.1667-0.7698 0.0000 ( 36979 PWs)   bands (ev):

   -25.6870 -25.6623 -25.6224 -25.5403 -25.4991 -25.4400 -25.4146 -25.4025
   -25.3043 -25.2215 -12.4411  -9.6251  -6.2019  -5.3722  -3.0807  -1.5007
    -0.3488   0.2299

          k =-0.3333-0.0962 0.0000 ( 36982 PWs)   bands (ev):

   -25.6775 -25.6668 -25.6124 -25.5461 -25.5198 -25.4405 -25.4052 -25.4011
   -25.2867 -25.2402 -12.7649  -9.0742  -5.7434  -5.5510  -2.8502  -2.2095
    -0.4208   0.3396

          k =-0.3333-0.6736 0.0000 ( 36921 PWs)   bands (ev):

   -25.7004 -25.6511 -25.6404 -25.5205 -25.4736 -25.4458 -25.4337 -25.3825
   -25.3454 -25.1976 -11.6126 -10.7140  -6.8568  -4.6587  -3.8798  -0.4609
    -0.3109   0.6556

          k = 0.2500-0.2406 0.0000 ( 36982 PWs)   bands (ev):

   -25.6775 -25.6668 -25.6124 -25.5461 -25.5198 -25.4405 -25.4052 -25.4011
   -25.2867 -25.2402 -12.7649  -9.0742  -5.7434  -5.5510  -2.8502  -2.2095
    -0.4208   0.3396

          k = 0.2500-0.8179 0.0000 ( 36979 PWs)   bands (ev):

   -25.6870 -25.6623 -25.6224 -25.5403 -25.4991 -25.4400 -25.4146 -25.4025
   -25.3043 -25.2215 -12.4411  -9.6251  -6.2019  -5.3722  -3.0807  -1.5007
    -0.3488   0.2299

          k =-0.4167-0.1443 0.0000 ( 36943 PWs)   bands (ev):

   -25.6818 -25.6636 -25.6254 -25.5366 -25.5173 -25.4275 -25.4168 -25.4016
   -25.2941 -25.2289 -12.3547  -9.8216  -5.9288  -5.3500  -3.2912  -2.3112
    -0.0275   0.5971

          k =-0.4167-0.7217 0.0000 ( 36920 PWs)   bands (ev):

   -25.6938 -25.6531 -25.6394 -25.5236 -25.5005 -25.4314 -25.4302 -25.3860
   -25.3264 -25.2072 -11.7615 -10.5926  -6.5475  -4.8301  -3.7833  -1.5260
    -0.0704   0.8219

          k = 0.3333-0.2887 0.0000 ( 36943 PWs)   bands (ev):

   -25.6818 -25.6636 -25.6254 -25.5366 -25.5173 -25.4275 -25.4168 -25.4016
   -25.2941 -25.2289 -12.3547  -9.8216  -5.9288  -5.3500  -3.2912  -2.3112
    -0.0275   0.5971

          k = 0.3333-0.8660 0.0000 ( 36943 PWs)   bands (ev):

   -25.6818 -25.6636 -25.6254 -25.5366 -25.5173 -25.4275 -25.4168 -25.4016
   -25.2941 -25.2289 -12.3547  -9.8216  -5.9288  -5.3500  -3.2912  -2.3112
    -0.0275   0.5971

          k =-0.5000-0.1925 0.0000 ( 36963 PWs)   bands (ev):

   -25.6838 -25.6583 -25.6359 -25.5291 -25.5202 -25.4262 -25.4234 -25.3909
   -25.3015 -25.2229 -11.9796 -10.3795  -6.0532  -5.0991  -3.6381  -2.3961
     0.2161   0.8162

          k =-0.5000-0.7698 0.0000 ( 36963 PWs)   bands (ev):

   -25.6838 -25.6583 -25.6359 -25.5291 -25.5202 -25.4262 -25.4234 -25.3909
   -25.3015 -25.2229 -11.9796 -10.3795  -6.0532  -5.0991  -3.6381  -2.3961
     0.2161   0.8162

          k = 0.4167-0.3368 0.0000 ( 36963 PWs)   bands (ev):

   -25.6838 -25.6583 -25.6359 -25.5291 -25.5202 -25.4262 -25.4234 -25.3909
   -25.3015 -25.2229 -11.9796 -10.3795  -6.0532  -5.0991  -3.6381  -2.3961
     0.2161   0.8162

          k = 0.4167-0.9141 0.0000 ( 36935 PWs)   bands (ev):

   -25.6775 -25.6641 -25.6305 -25.5310 -25.5291 -25.4222 -25.4205 -25.3970
   -25.2871 -25.2340 -12.1927 -10.1052  -5.6925  -5.3537  -3.5125  -2.6911
     0.1067   1.1909

          k =-0.3333-0.0000 0.0000 ( 37021 PWs)   bands (ev):

   -25.6793 -25.6656 -25.6102 -25.5501 -25.5119 -25.4481 -25.4032 -25.3993
   -25.2916 -25.2374 -12.8178  -8.9388  -5.7887  -5.6460  -2.6574  -1.6989
    -0.9753   0.2460

          k =-0.3333-0.5774 0.0000 ( 36894 PWs)   bands (ev):

   -25.7035 -25.6460 -25.6460 -25.5162 -25.4522 -25.4495 -25.4495 -25.3675
   -25.3675 -25.1928 -11.1696 -11.1696  -6.9997  -4.2632  -4.2631  -0.4881
     0.5545   0.5546

          k =-0.4167-0.0481 0.0000 ( 36979 PWs)   bands (ev):

   -25.6870 -25.6623 -25.6224 -25.5403 -25.4991 -25.4400 -25.4146 -25.4025
   -25.3043 -25.2215 -12.4411  -9.6251  -6.2019  -5.3722  -3.0807  -1.5007
    -0.3488   0.2299

          k =-0.4167-0.6255 0.0000 ( 36921 PWs)   bands (ev):

   -25.7004 -25.6511 -25.6404 -25.5205 -25.4736 -25.4458 -25.4337 -25.3825
   -25.3454 -25.1976 -11.6126 -10.7140  -6.8568  -4.6587  -3.8798  -0.4609
    -0.3109   0.6556

          k = 0.2500-0.3368 0.0000 ( 36979 PWs)   bands (ev):

   -25.6870 -25.6623 -25.6224 -25.5403 -25.4991 -25.4400 -25.4146 -25.4025
   -25.3043 -25.2215 -12.4411  -9.6251  -6.2019  -5.3722  -3.0807  -1.5007
    -0.3488   0.2299

          k = 0.2500-0.9141 0.0000 ( 36982 PWs)   bands (ev):

   -25.6775 -25.6668 -25.6124 -25.5461 -25.5198 -25.4405 -25.4052 -25.4011
   -25.2867 -25.2402 -12.7649  -9.0742  -5.7434  -5.5510  -2.8502  -2.2095
    -0.4208   0.3396

          k =-0.5000-0.0962 0.0000 ( 36940 PWs)   bands (ev):

   -25.6921 -25.6570 -25.6335 -25.5296 -25.4974 -25.4364 -25.4235 -25.3931
   -25.3187 -25.2109 -12.0163 -10.2626  -6.4605  -5.0320  -3.5379  -1.5121
     0.0117   0.3617

          k =-0.5000-0.6736 0.0000 ( 36940 PWs)   bands (ev):

   -25.6921 -25.6570 -25.6335 -25.5296 -25.4974 -25.4364 -25.4235 -25.3931
   -25.3187 -25.2109 -12.0163 -10.2626  -6.4605  -5.0320  -3.5379  -1.5121
     0.0117   0.3617

          k = 0.3333-0.3849 0.0000 ( 36940 PWs)   bands (ev):

   -25.6921 -25.6570 -25.6335 -25.5296 -25.4974 -25.4364 -25.4235 -25.3931
   -25.3187 -25.2109 -12.0163 -10.2626  -6.4605  -5.0320  -3.5379  -1.5121
     0.0117   0.3617

          k = 0.3333-0.9623 0.0000 ( 36965 PWs)   bands (ev):

   -25.6749 -25.6688 -25.6178 -25.5380 -25.5289 -25.4288 -25.4107 -25.4041
   -25.2814 -25.2418 -12.6084  -9.4062  -5.6089  -5.5230  -3.1862  -2.4940
    -0.2076   0.7160

          k =-0.5833-0.1443 0.0000 ( 36920 PWs)   bands (ev):

   -25.6938 -25.6531 -25.6394 -25.5236 -25.5005 -25.4314 -25.4302 -25.3860
   -25.3264 -25.2072 -11.7615 -10.5926  -6.5475  -4.8301  -3.7833  -1.5260
    -0.0704   0.8219

[...]
      thresh= 1.363E-05 alpha_mix =  0.700 |ddv_scf|^2 =  4.102E-09

      iter #   6 total cpu time : 23146.2 secs   av.it.:  11.0
      thresh= 6.405E-06 alpha_mix =  0.700 |ddv_scf|^2 =  1.504E-10

      iter #   7 total cpu time : 23401.1 secs   av.it.:  11.5
      thresh= 1.226E-06 alpha_mix =  0.700 |ddv_scf|^2 =  2.215E-11

      iter #   8 total cpu time : 23651.7 secs   av.it.:  11.3
      thresh= 4.707E-07 alpha_mix =  0.700 |ddv_scf|^2 =  3.036E-12

      iter #   9 total cpu time : 23898.6 secs   av.it.:  11.2
      thresh= 1.742E-07 alpha_mix =  0.700 |ddv_scf|^2 =  1.032E-11

      iter #  10 total cpu time : 24114.3 secs   av.it.:   9.4
      thresh= 3.213E-07 alpha_mix =  0.700 |ddv_scf|^2 =  6.027E-13

      iter #  11 total cpu time : 24346.6 secs   av.it.:  10.4
      thresh= 7.763E-08 alpha_mix =  0.700 |ddv_scf|^2 =  1.625E-13

      iter #  12 total cpu time : 24566.9 secs   av.it.:   9.7
      thresh= 4.032E-08 alpha_mix =  0.700 |ddv_scf|^2 =  3.754E-14

      iter #  13 total cpu time : 24796.0 secs   av.it.:  10.1
      thresh= 1.937E-08 alpha_mix =  0.700 |ddv_scf|^2 =  3.265E-15

     End of self-consistent calculation

     Convergence has been achieved 


     Representation #   2 mode #   2

     Self-consistent Calculation

      iter #   1 total cpu time : 24965.7 secs   av.it.:   6.2
      thresh= 1.000E-02 alpha_mix =  0.700 |ddv_scf|^2 =  2.173E-06

      iter #   2 total cpu time : 25220.0 secs   av.it.:  11.7
      thresh= 1.474E-04 alpha_mix =  0.700 |ddv_scf|^2 =  5.671E-06

      iter #   3 total cpu time : 25447.9 secs   av.it.:  10.1
      thresh= 2.381E-04 alpha_mix =  0.700 |ddv_scf|^2 =  1.889E-06

      iter #   4 total cpu time : 25660.3 secs   av.it.:   9.2
      thresh= 1.375E-04 alpha_mix =  0.700 |ddv_scf|^2 =  6.098E-08

      iter #   5 total cpu time : 25908.9 secs   av.it.:  10.9
      thresh= 2.469E-05 alpha_mix =  0.700 |ddv_scf|^2 =  1.143E-08

      iter #   6 total cpu time : 26150.0 secs   av.it.:  10.8
      thresh= 1.069E-05 alpha_mix =  0.700 |ddv_scf|^2 =  7.311E-10

      iter #   7 total cpu time : 26399.4 secs   av.it.:  11.3
      thresh= 2.704E-06 alpha_mix =  0.700 |ddv_scf|^2 =  6.351E-11

      iter #   8 total cpu time : 26647.0 secs   av.it.:  11.2
      thresh= 7.970E-07 alpha_mix =  0.700 |ddv_scf|^2 =  7.426E-12

      iter #   9 total cpu time : 26887.4 secs   av.it.:  10.9
      thresh= 2.725E-07 alpha_mix =  0.700 |ddv_scf|^2 =  1.766E-13

      iter #  10 total cpu time : 27135.4 secs   av.it.:  11.2
      thresh= 4.202E-08 alpha_mix =  0.700 |ddv_scf|^2 =  2.553E-13

      iter #  11 total cpu time : 27355.8 secs   av.it.:   9.7
      thresh= 5.052E-08 alpha_mix =  0.700 |ddv_scf|^2 =  1.606E-13

      iter #  12 total cpu time : 27571.4 secs   av.it.:   9.3
      thresh= 4.007E-08 alpha_mix =  0.700 |ddv_scf|^2 =  4.202E-15

     End of self-consistent calculation

     Convergence has been achieved 


     Representation #   3 mode #   3

     Self-consistent Calculation

      iter #   1 total cpu time : 27740.1 secs   av.it.:   6.2
      thresh= 1.000E-02 alpha_mix =  0.700 |ddv_scf|^2 =  2.127E-06

      iter #   2 total cpu time : 27993.0 secs   av.it.:  11.7
      thresh= 1.458E-04 alpha_mix =  0.700 |ddv_scf|^2 =  5.194E-06

      iter #   3 total cpu time : 28219.5 secs   av.it.:  10.1
      thresh= 2.279E-04 alpha_mix =  0.700 |ddv_scf|^2 =  1.761E-06

      iter #   4 total cpu time : 28421.5 secs   av.it.:   9.2
      thresh= 1.327E-04 alpha_mix =  0.700 |ddv_scf|^2 =  7.186E-08

      iter #   5 total cpu time : 28650.1 secs   av.it.:  10.8
      thresh= 2.681E-05 alpha_mix =  0.700 |ddv_scf|^2 =  1.237E-08

      iter #   6 total cpu time : 28877.3 secs   av.it.:  10.8
      thresh= 1.112E-05 alpha_mix =  0.700 |ddv_scf|^2 =  7.296E-10

      iter #   7 total cpu time : 29111.5 secs   av.it.:  11.3
      thresh= 2.701E-06 alpha_mix =  0.700 |ddv_scf|^2 =  6.607E-11

      iter #   8 total cpu time : 29342.2 secs   av.it.:  11.2
      thresh= 8.128E-07 alpha_mix =  0.700 |ddv_scf|^2 =  6.653E-12

      iter #   9 total cpu time : 29574.5 secs   av.it.:  11.0
      thresh= 2.579E-07 alpha_mix =  0.700 |ddv_scf|^2 =  1.100E-12

      iter #  10 total cpu time : 29798.8 secs   av.it.:  10.5
      thresh= 1.049E-07 alpha_mix =  0.700 |ddv_scf|^2 =  6.542E-12

      iter #  11 total cpu time : 29996.0 secs   av.it.:   8.9
      thresh= 2.558E-07 alpha_mix =  0.700 |ddv_scf|^2 =  3.204E-14

      iter #  12 total cpu time : 30229.5 secs   av.it.:  11.1
      thresh= 1.790E-08 alpha_mix =  0.700 |ddv_scf|^2 =  5.543E-15

     End of self-consistent calculation

     Convergence has been achieved 


     Representation #   4 mode #   4

     Self-consistent Calculation

      iter #   1 total cpu time : 30391.7 secs   av.it.:   6.3
      thresh= 1.000E-02 alpha_mix =  0.700 |ddv_scf|^2 =  8.986E-06

      iter #   2 total cpu time : 30627.1 secs   av.it.:  11.3
      thresh= 2.998E-04 alpha_mix =  0.700 |ddv_scf|^2 =  1.357E-04

      iter #   3 total cpu time : 30815.7 secs   av.it.:   8.6
      thresh= 1.165E-03 alpha_mix =  0.700 |ddv_scf|^2 =  1.474E-07

      iter #   4 total cpu time : 31053.3 secs   av.it.:  11.5
      thresh= 3.840E-05 alpha_mix =  0.700 |ddv_scf|^2 =  1.445E-08

      iter #   5 total cpu time : 31284.2 secs   av.it.:  11.1
      thresh= 1.202E-05 alpha_mix =  0.700 |ddv_scf|^2 =  7.175E-09

      iter #   6 total cpu time : 31503.7 secs   av.it.:  10.5
      thresh= 8.471E-06 alpha_mix =  0.700 |ddv_scf|^2 =  1.565E-10

      iter #   7 total cpu time : 31741.8 secs   av.it.:  11.6
      thresh= 1.251E-06 alpha_mix =  0.700 |ddv_scf|^2 =  3.157E-11

      iter #   8 total cpu time : 31980.6 secs   av.it.:  11.5
      thresh= 5.619E-07 alpha_mix =  0.700 |ddv_scf|^2 =  4.622E-11

      iter #   9 total cpu time : 32193.3 secs   av.it.:  10.0
      thresh= 6.799E-07 alpha_mix =  0.700 |ddv_scf|^2 =  4.669E-12

      iter #  10 total cpu time : 32427.1 secs   av.it.:  11.2
      thresh= 2.161E-07 alpha_mix =  0.700 |ddv_scf|^2 =  4.675E-12

      iter #  11 total cpu time : 32629.3 secs   av.it.:   9.1
      thresh= 2.162E-07 alpha_mix =  0.700 |ddv_scf|^2 =  3.962E-13

      iter #  12 total cpu time : 32854.2 secs   av.it.:  10.6
      thresh= 6.294E-08 alpha_mix =  0.700 |ddv_scf|^2 =  3.674E-14

      iter #  13 total cpu time : 33080.3 secs   av.it.:  10.7
      thresh= 1.917E-08 alpha_mix =  0.700 |ddv_scf|^2 =  6.990E-15

     End of self-consistent calculation

     Convergence has been achieved 


     Representation #   5 mode #   5

     Self-consistent Calculation

      iter #   1 total cpu time : 33252.3 secs   av.it.:   6.1
      thresh= 1.000E-02 alpha_mix =  0.700 |ddv_scf|^2 =  3.958E-06

      iter #   2 total cpu time : 33495.1 secs   av.it.:  11.5
      thresh= 1.989E-04 alpha_mix =  0.700 |ddv_scf|^2 =  5.405E-05

      iter #   3 total cpu time : 33687.3 secs   av.it.:   8.7
      thresh= 7.352E-04 alpha_mix =  0.700 |ddv_scf|^2 =  1.873E-07

      iter #   4 total cpu time : 33921.0 secs   av.it.:  11.3
      thresh= 4.328E-05 alpha_mix =  0.700 |ddv_scf|^2 =  8.957E-09

      iter #   5 total cpu time : 34157.5 secs   av.it.:  11.3
      thresh= 9.464E-06 alpha_mix =  0.700 |ddv_scf|^2 =  6.251E-09

      iter #   6 total cpu time : 34379.0 secs   av.it.:  10.4
      thresh= 7.907E-06 alpha_mix =  0.700 |ddv_scf|^2 =  1.902E-10

      iter #   7 total cpu time : 34616.6 secs   av.it.:  11.5
      thresh= 1.379E-06 alpha_mix =  0.700 |ddv_scf|^2 =  2.946E-11

      iter #   8 total cpu time : 34849.9 secs   av.it.:  11.3
      thresh= 5.428E-07 alpha_mix =  0.700 |ddv_scf|^2 =  5.126E-12

      iter #   9 total cpu time : 35080.6 secs   av.it.:  11.1
      thresh= 2.264E-07 alpha_mix =  0.700 |ddv_scf|^2 =  3.572E-11

      iter #  10 total cpu time : 35271.1 secs   av.it.:   8.8
      thresh= 5.977E-07 alpha_mix =  0.700 |ddv_scf|^2 =  2.800E-12

      iter #  11 total cpu time : 35476.6 secs   av.it.:   9.5
      thresh= 1.673E-07 alpha_mix =  0.700 |ddv_scf|^2 =  2.408E-13

      iter #  12 total cpu time : 35697.9 secs   av.it.:  10.3
      thresh= 4.907E-08 alpha_mix =  0.700 |ddv_scf|^2 =  5.069E-15

     End of self-consistent calculation

     Convergence has been achieved 


     Representation #   6 mode #   6

     Self-consistent Calculation

      iter #   1 total cpu time : 35863.6 secs   av.it.:   6.3
      thresh= 1.000E-02 alpha_mix =  0.700 |ddv_scf|^2 =  1.181E-05

      iter #   2 total cpu time : 36099.9 secs   av.it.:  11.3
      thresh= 3.437E-04 alpha_mix =  0.700 |ddv_scf|^2 =  1.803E-04

      iter #   3 total cpu time : 36290.1 secs   av.it.:   8.6
      thresh= 1.343E-03 alpha_mix =  0.700 |ddv_scf|^2 =  1.650E-07

      iter #   4 total cpu time : 36527.4 secs   av.it.:  11.6
      thresh= 4.062E-05 alpha_mix =  0.700 |ddv_scf|^2 =  1.676E-08

      iter #   5 total cpu time : 36762.2 secs   av.it.:  11.1
      thresh= 1.295E-05 alpha_mix =  0.700 |ddv_scf|^2 =  7.367E-09

      iter #   6 total cpu time : 36985.7 secs   av.it.:  10.4
      thresh= 8.583E-06 alpha_mix =  0.700 |ddv_scf|^2 =  1.524E-10

      iter #   7 total cpu time : 37229.0 secs   av.it.:  11.8
      thresh= 1.235E-06 alpha_mix =  0.700 |ddv_scf|^2 =  2.963E-11

      iter #   8 total cpu time : 37465.6 secs   av.it.:  11.5
      thresh= 5.443E-07 alpha_mix =  0.700 |ddv_scf|^2 =  4.282E-11

      iter #   9 total cpu time : 37680.0 secs   av.it.:  10.0
      thresh= 6.544E-07 alpha_mix =  0.700 |ddv_scf|^2 =  2.765E-12

      iter #  10 total cpu time : 37919.7 secs   av.it.:  11.5
      thresh= 1.663E-07 alpha_mix =  0.700 |ddv_scf|^2 =  1.517E-12

      iter #  11 total cpu time : 38132.4 secs   av.it.:  10.0
      thresh= 1.232E-07 alpha_mix =  0.700 |ddv_scf|^2 =  7.609E-13

      iter #  12 total cpu time : 38337.6 secs   av.it.:   9.8
      thresh= 8.723E-08 alpha_mix =  0.700 |ddv_scf|^2 =  7.042E-14

      iter #  13 total cpu time : 38557.8 secs   av.it.:  10.3
      thresh= 2.654E-08 alpha_mix =  0.700 |ddv_scf|^2 =  5.240E-15

     End of self-consistent calculation

     Convergence has been achieved 

     Number of q in the star =    6
     List of q in the star:
          1   0.166666667   0.288675135   0.000000000
          2  -0.166666667   0.288675135   0.000000000
          3  -0.333333333  -0.000000000   0.000000000
          4   0.166666667  -0.288675135   0.000000000
          5   0.333333333   0.000000000   0.000000000
          6  -0.166666667  -0.288675135   0.000000000

     Diagonalizing the dynamical matrix

     q = (    0.166666667   0.288675135   0.000000000 ) 

 **************************************************************************
     freq (    1) =       0.493207 [THz] =      16.451606 [cm-1]
     freq (    2) =       1.179641 [THz] =      39.348593 [cm-1]
     freq (    3) =       1.447478 [THz] =      48.282683 [cm-1]
     freq (    4) =       3.149321 [THz] =     105.050043 [cm-1]
     freq (    5) =       5.100286 [THz] =     170.127230 [cm-1]
     freq (    6) =       5.250041 [THz] =     175.122515 [cm-1]
 **************************************************************************

     Mode symmetry, C_1 (1)     point group:

     freq (   1-   1) =         16.5  [cm-1]   --> A                  
     freq (   2-   2) =         39.3  [cm-1]   --> A                  
     freq (   3-   3) =         48.3  [cm-1]   --> A                  
     freq (   4-   4) =        105.1  [cm-1]   --> A                  
     freq (   5-   5) =        170.1  [cm-1]   --> A                  
     freq (   6-   6) =        175.1  [cm-1]   --> A                  

     Calculation of q =    0.1666667   0.4811252   0.0000000

     Parallelization info
     --------------------
     sticks:   dense  smooth     PW     G-vecs:    dense   smooth      PW
     Min         324     324     97                49306    49306    7917
     Max         325     325     98                49325    49325    7926
     Sum        1945    1945    583               295873   295873   47519


     Title: 
     default                                                                    


     bravais-lattice index     =            4
     lattice parameter (alat)  =       8.8506  a.u.
     unit-cell volume          =    2563.9136 (a.u.)^3
     number of atoms/cell      =            2
     number of atomic types    =            1
     number of electrons       =        28.00
     number of Kohn-Sham states=           18
     kinetic-energy cutoff     =      90.0000  Ry
     charge density cutoff     =     360.0000  Ry
     Exchange-correlation= PBE
                           (   1   4   3   4   0   0   0)

     celldm(1)=   8.850584  celldm(2)=   0.000000  celldm(3)=   4.270286
     celldm(4)=   0.000000  celldm(5)=   0.000000  celldm(6)=   0.000000

     crystal axes: (cart. coord. in units of alat)
               a(1) = (   1.000000   0.000000   0.000000 )  
               a(2) = (  -0.500000   0.866025   0.000000 )  
               a(3) = (   0.000000   0.000000   4.270286 )  

     reciprocal axes: (cart. coord. in units 2 pi/alat)
               b(1) = (  1.000000  0.577350 -0.000000 )  
               b(2) = (  0.000000  1.154701  0.000000 )  
               b(3) = (  0.000000 -0.000000  0.234176 )  


     PseudoPot. # 1 for Sn read from file:
     ../pseudo/Sn_pbe_v1.uspp.F.UPF
     MD5 check sum: 4cf58ce39ec5d5d420df3dd08604eb00
     Pseudo is Ultrasoft + core correction, Zval = 14.0
     Generated by new atomic code, or converted to UPF format
     Using radial grid of  891 points,  6 beta functions with: 
                l(1) =   0
                l(2) =   0
                l(3) =   1
                l(4) =   1
                l(5) =   2
                l(6) =   2
     Q(r) pseudized with  6 coefficients,  rinner =    1.200   1.200   1.200
                                                       1.200   1.200

     atomic species   valence    mass     pseudopotential
        Sn            14.00   118.71000     Sn( 1.00)

      6 Sym. Ops. (no inversion) found



   Cartesian axes

     site n.     atom                  positions (alat units)
         1           Sn  tau(   1) = (   0.0000000   0.5773503   2.1351428  )
         2           Sn  tau(   2) = (   0.5000000   0.2886751   1.9552503  )

     number of k points=   288  Methfessel-Paxton smearing, width (Ry)=  0.0200

     Number of k-points >= 100: set verbosity='high' to print them.

     Dense  grid:   295873 G-vectors     FFT dimensions: (  54,  54, 240)

     Estimated max dynamical RAM per process >     163.00 MB

     Estimated total dynamical RAM >     977.98 MB
 ----2D----2D----2D----2D----2D----2D----2D----2D----2D----2D----2D----2D
  The code is running with the 2D cutoff
  Please refer to:
  Sohier, T., Calandra, M., & Mauri, F. (2017), 
  Density functional perturbation theory for gated two-dimensional heterostructures:
  Theoretical developments and application to flexural phonons in graphene.
  Physical Review B, 96(7), 75448. https://doi.org/10.1103/PhysRevB.96.075448
 ----2D----2D----2D----2D----2D----2D----2D----2D----2D----2D----2D----2D

     The potential is recalculated from file :
     ../tmp/_ph0/stanene.save/charge-density


     negative rho (up, down):  2.673E-04 0.000E+00
     Starting wfcs are   18 atomic wfcs

     Band Structure Calculation
     Davidson diagonalization with overlap

     ethr =  3.57E-11,  avg # of iterations = 24.9

     total cpu time spent up to now is     2242.4 secs

     End of band structure calculation

     Number of k-points >= 100: set verbosity='high' to print the bands.

     the Fermi energy is    -4.2843 ev

     Writing output data file ../tmp/_ph0/stanene.save/

     default                                                                    

     bravais-lattice index     =            4
     lattice parameter (alat)  =       8.8506  a.u.
     unit-cell volume          =    2563.9136 (a.u.)^3
     number of atoms/cell      =            2
     number of atomic types    =            1
     kinetic-energy cut-off    =      90.0000  Ry
     charge density cut-off    =     360.0000  Ry
     convergence threshold     =      1.0E-14
     beta                      =       0.7000
     number of iterations used =            4
     Exchange-correlation= PBE
                           (   1   4   3   4   0   0   0)


     celldm(1)=    8.85058  celldm(2)=    0.00000  celldm(3)=    4.27029
     celldm(4)=    0.00000  celldm(5)=    0.00000  celldm(6)=    0.00000

     crystal axes: (cart. coord. in units of alat)
               a(1) = (  1.0000  0.0000  0.0000 )  
               a(2) = ( -0.5000  0.8660  0.0000 )  
               a(3) = (  0.0000  0.0000  4.2703 )  

     reciprocal axes: (cart. coord. in units 2 pi/alat)
               b(1) = (  1.0000  0.5774 -0.0000 )  
               b(2) = (  0.0000  1.1547  0.0000 )  
               b(3) = (  0.0000 -0.0000  0.2342 )  


     Atoms inside the unit cell: 

     Cartesian axes

     site n.  atom      mass           positions (alat units)
        1     Sn 118.7100   tau(    1) = (    0.00000    0.57735    2.13514  )
        2     Sn 118.7100   tau(    2) = (    0.50000    0.28868    1.95525  )

     Computing dynamical matrix for 
                    q = (   0.1666667   0.4811252   0.0000000 )

     No symmetry!

     G cutoff =  714.3099  (  49308 G-vectors)     FFT grid: ( 54, 54,240)

     number of k points=   288  Methfessel-Paxton smearing, width (Ry)=  0.0200

     PseudoPot. # 1 for Sn read from file:
     ../pseudo/Sn_pbe_v1.uspp.F.UPF
     MD5 check sum: 4cf58ce39ec5d5d420df3dd08604eb00
     Pseudo is Ultrasoft + core correction, Zval = 14.0
     Generated by new atomic code, or converted to UPF format
     Using radial grid of  891 points,  6 beta functions with: 
                l(1) =   0
                l(2) =   0
                l(3) =   1
                l(4) =   1
                l(5) =   2
                l(6) =   2
     Q(r) pseudized with  6 coefficients,  rinner =    1.200   1.200   1.200
                                                       1.200   1.200

     Mode symmetry, C_1 (1)     point group:


     Atomic displacements:
     There are    6 irreducible representations

     Representation     1      1 modes -  To be done

     Representation     2      1 modes -  To be done

     Representation     3      1 modes -  To be done

     Representation     4      1 modes -  To be done

     Representation     5      1 modes -  To be done

     Representation     6      1 modes -  To be done



     Alpha used in Ewald sum =   2.8000

     negative rho (up, down):  2.673E-04 0.000E+00
     PHONON       :     10h41m CPU     10h55m WALL



     Representation #   1 mode #   1

     Self-consistent Calculation

      iter #   1 total cpu time : 39474.8 secs   av.it.:   6.0
      thresh= 1.000E-02 alpha_mix =  0.700 |ddv_scf|^2 =  8.556E-07

      iter #   2 total cpu time : 39727.3 secs   av.it.:  12.1
      thresh= 9.250E-05 alpha_mix =  0.700 |ddv_scf|^2 =  7.052E-07

      iter #   3 total cpu time : 39961.9 secs   av.it.:  11.2
      thresh= 8.397E-05 alpha_mix =  0.700 |ddv_scf|^2 =  6.250E-08

      iter #   4 total cpu time : 40191.4 secs   av.it.:  11.0
      thresh= 2.500E-05 alpha_mix =  0.700 |ddv_scf|^2 =  1.251E-08

      iter #   5 total cpu time : 40418.3 secs   av.it.:  10.7
      thresh= 1.118E-05 alpha_mix =  0.700 |ddv_scf|^2 =  6.736E-09

      iter #   6 total cpu time : 40628.8 secs   av.it.:  10.0
      thresh= 8.208E-06 alpha_mix =  0.700 |ddv_scf|^2 =  5.571E-10

      iter #   7 total cpu time : 40861.5 secs   av.it.:  11.1
      thresh= 2.360E-06 alpha_mix =  0.700 |ddv_scf|^2 =  1.807E-11

      iter #   8 total cpu time : 41101.1 secs   av.it.:  11.6
      thresh= 4.251E-07 alpha_mix =  0.700 |ddv_scf|^2 =  1.370E-12

      iter #   9 total cpu time : 41345.0 secs   av.it.:  11.9
      thresh= 1.171E-07 alpha_mix =  0.700 |ddv_scf|^2 =  9.522E-13
