
     Program PWSCF v.6.7MaX starts on 27Jan2024 at 13:53:10 

     This program is part of the open-source Quantum ESPRESSO suite
     for quantum simulation of materials; please cite
         "P. Giannozzi et al., J. Phys.:Condens. Matter 21 395502 (2009);
         "P. Giannozzi et al., J. Phys.:Condens. Matter 29 465901 (2017);
          URL http://www.quantum-espresso.org", 
     in publications or presentations arising from this work. More details at
     http://www.quantum-espresso.org/quote

     Parallel version (MPI), running on     6 processors

     MPI processes distributed on     1 nodes
     R & G space division:  proc/nbgrp/npool/nimage =       6
     Waiting for input...
     Reading input from standard input

     Current dimensions of program PWSCF are:
     Max number of different atomic species (ntypx) = 10
     Max number of k-points (npk) =  40000
     Max angular momentum in pseudopotentials (lmaxx) =  3

     Subspace diagonalization in iterative solution of the eigenvalue problem:
     one sub-group per band group will be used
     scalapack distributed-memory algorithm (size of sub-group:  2*  2 procs)


     Parallelization info
     --------------------
     sticks:   dense  smooth     PW     G-vecs:    dense   smooth      PW
     Min         324     324     88                49306    49306    7102
     Max         325     325     90                49325    49325    7107
     Sum        1945    1945    535               295873   295873   42629



     bravais-lattice index     =            4
     lattice parameter (alat)  =       8.8506  a.u.
     unit-cell volume          =    2563.9136 (a.u.)^3
     number of atoms/cell      =            2
     number of atomic types    =            1
     number of electrons       =        28.00
     number of Kohn-Sham states=           18
     kinetic-energy cutoff     =      90.0000  Ry
     charge density cutoff     =     360.0000  Ry
     scf convergence threshold =      1.0E-06
     mixing beta               =       0.7000
     number of iterations used =            8  plain     mixing
     Exchange-correlation= SLA  PW   PBE  PBE
                           (   1   4   3   4   0   0   0)

     celldm(1)=   8.850584  celldm(2)=   0.000000  celldm(3)=   4.270286
     celldm(4)=   0.000000  celldm(5)=   0.000000  celldm(6)=   0.000000

     crystal axes: (cart. coord. in units of alat)
               a(1) = (   1.000000   0.000000   0.000000 )  
               a(2) = (  -0.500000   0.866025   0.000000 )  
               a(3) = (   0.000000   0.000000   4.270286 )  

     reciprocal axes: (cart. coord. in units 2 pi/alat)
               b(1) = (  1.000000  0.577350 -0.000000 )  
               b(2) = (  0.000000  1.154701  0.000000 )  
               b(3) = (  0.000000 -0.000000  0.234176 )  


     PseudoPot. # 1 for Sn read from file:
     ../pseudo/Sn_pbe_v1.uspp.F.UPF
     MD5 check sum: 4cf58ce39ec5d5d420df3dd08604eb00
     Pseudo is Ultrasoft + core correction, Zval = 14.0
     Generated by new atomic code, or converted to UPF format
     Using radial grid of  891 points,  6 beta functions with: 
                l(1) =   0
                l(2) =   0
                l(3) =   1
                l(4) =   1
                l(5) =   2
                l(6) =   2
     Q(r) pseudized with  6 coefficients,  rinner =    1.200   1.200   1.200
                                                       1.200   1.200

     atomic species   valence    mass     pseudopotential
        Sn            14.00   118.71000     Sn( 1.00)

      6 Sym. Ops. (no inversion) found


                                    s                        frac. trans.

      isym =  1     identity                                     

 cryst.   s( 1) = (     1          0          0      )
                  (     0          1          0      )
                  (     0          0          1      )

 cart.    s( 1) = (  1.0000000  0.0000000  0.0000000 )
                  (  0.0000000  1.0000000  0.0000000 )
                  (  0.0000000  0.0000000  1.0000000 )


      isym =  2     120 deg rotation - cryst. axis [0,0,1]       

 cryst.   s( 2) = (     0          1          0      )
                  (    -1         -1          0      )
                  (     0          0          1      )

 cart.    s( 2) = ( -0.5000000 -0.8660254  0.0000000 )
                  (  0.8660254 -0.5000000  0.0000000 )
                  (  0.0000000  0.0000000  1.0000000 )


      isym =  3     120 deg rotation - cryst. axis [0,0,-1]      

 cryst.   s( 3) = (    -1         -1          0      )
                  (     1          0          0      )
                  (     0          0          1      )

 cart.    s( 3) = ( -0.5000000  0.8660254  0.0000000 )
                  ( -0.8660254 -0.5000000  0.0000000 )
                  (  0.0000000  0.0000000  1.0000000 )


      isym =  4     inv. 180 deg rotation - cart. axis [1,0,0]   

 cryst.   s( 4) = (    -1          0          0      )
                  (     1          1          0      )
                  (     0          0          1      )

 cart.    s( 4) = ( -1.0000000  0.0000000  0.0000000 )
                  (  0.0000000  1.0000000  0.0000000 )
                  (  0.0000000  0.0000000  1.0000000 )


      isym =  5     inv. 180 deg rotation - cryst. axis [0,1,0]  

 cryst.   s( 5) = (     1          1          0      )
                  (     0         -1          0      )
                  (     0          0          1      )

 cart.    s( 5) = (  0.5000000  0.8660254  0.0000000 )
                  (  0.8660254 -0.5000000  0.0000000 )
                  (  0.0000000  0.0000000  1.0000000 )


      isym =  6     inv. 180 deg rotation - cryst. axis [1,1,0]  

 cryst.   s( 6) = (     0         -1          0      )
                  (    -1          0          0      )
                  (     0          0          1      )

 cart.    s( 6) = (  0.5000000 -0.8660254  0.0000000 )
                  ( -0.8660254 -0.5000000  0.0000000 )
                  (  0.0000000  0.0000000  1.0000000 )


     point group C_3v (3m)  
     there are  3 classes
     the character table:

       E     2C3   3s_v 
A_1    1.00  1.00  1.00
A_2    1.00  1.00 -1.00
E      2.00 -1.00  0.00

     the symmetry operations in each class and the name of the first element:

     E        1
          identity                                               
     2C3      2    3
          120 deg rotation - cryst. axis [0,0,1]                 
     3s_v     4    5    6
          inv. 180 deg rotation - cart. axis [1,0,0]             

   Cartesian axes

     site n.     atom                  positions (alat units)
         1           Sn  tau(   1) = (   0.0000000   0.5773503   2.1351428  )
         2           Sn  tau(   2) = (   0.5000000   0.2886751   1.9552503  )

   Crystallographic axes

     site n.     atom                  positions (cryst. coord.)
         1           Sn  tau(   1) = (  0.3333333  0.6666667  0.5000000  )
         2           Sn  tau(   2) = (  0.6666667  0.3333333  0.4578734  )

     number of k points=    19  Methfessel-Paxton smearing, width (Ry)=  0.0200
                       cart. coord. in units 2pi/alat
        k(    1) = (   0.0000000   0.0000000   0.0000000), wk =   0.0138889
        k(    2) = (   0.0000000   0.0962250   0.0000000), wk =   0.0833333
        k(    3) = (   0.0000000   0.1924501   0.0000000), wk =   0.0833333
        k(    4) = (   0.0000000   0.2886751   0.0000000), wk =   0.0833333
        k(    5) = (   0.0000000   0.3849002   0.0000000), wk =   0.0833333
        k(    6) = (   0.0000000   0.4811252   0.0000000), wk =   0.0833333
        k(    7) = (   0.0000000  -0.5773503   0.0000000), wk =   0.0416667
        k(    8) = (   0.0833333   0.1443376   0.0000000), wk =   0.0833333
        k(    9) = (   0.0833333   0.2405626   0.0000000), wk =   0.1666667
        k(   10) = (   0.0833333   0.3367877   0.0000000), wk =   0.1666667
        k(   11) = (   0.0833333   0.4330127   0.0000000), wk =   0.1666667
        k(   12) = (   0.0833333   0.5292377   0.0000000), wk =   0.1666667
        k(   13) = (   0.1666667   0.2886751   0.0000000), wk =   0.0833333
        k(   14) = (   0.1666667   0.3849002   0.0000000), wk =   0.1666667
        k(   15) = (   0.1666667   0.4811252   0.0000000), wk =   0.1666667
        k(   16) = (   0.1666667   0.5773503   0.0000000), wk =   0.0833333
        k(   17) = (   0.2500000   0.4330127   0.0000000), wk =   0.0833333
        k(   18) = (   0.2500000   0.5292377   0.0000000), wk =   0.1666667
        k(   19) = (   0.3333333   0.5773503   0.0000000), wk =   0.0277778

                       cryst. coord.
        k(    1) = (   0.0000000   0.0000000   0.0000000), wk =   0.0138889
        k(    2) = (   0.0000000   0.0833333   0.0000000), wk =   0.0833333
        k(    3) = (   0.0000000   0.1666667   0.0000000), wk =   0.0833333
        k(    4) = (   0.0000000   0.2500000   0.0000000), wk =   0.0833333
        k(    5) = (   0.0000000   0.3333333   0.0000000), wk =   0.0833333
        k(    6) = (   0.0000000   0.4166667   0.0000000), wk =   0.0833333
        k(    7) = (   0.0000000  -0.5000000   0.0000000), wk =   0.0416667
        k(    8) = (   0.0833333   0.0833333   0.0000000), wk =   0.0833333
        k(    9) = (   0.0833333   0.1666667   0.0000000), wk =   0.1666667
        k(   10) = (   0.0833333   0.2500000   0.0000000), wk =   0.1666667
        k(   11) = (   0.0833333   0.3333333   0.0000000), wk =   0.1666667
        k(   12) = (   0.0833333   0.4166667   0.0000000), wk =   0.1666667
        k(   13) = (   0.1666667   0.1666667   0.0000000), wk =   0.0833333
        k(   14) = (   0.1666667   0.2500000   0.0000000), wk =   0.1666667
        k(   15) = (   0.1666667   0.3333333   0.0000000), wk =   0.1666667
        k(   16) = (   0.1666667   0.4166667   0.0000000), wk =   0.0833333
        k(   17) = (   0.2500000   0.2500000   0.0000000), wk =   0.0833333
        k(   18) = (   0.2500000   0.3333333   0.0000000), wk =   0.1666667
        k(   19) = (   0.3333333   0.3333333   0.0000000), wk =   0.0277778

     Dense  grid:   295873 G-vectors     FFT dimensions: (  54,  54, 240)

     Dynamical RAM for                 wfc:       1.69 MB

     Dynamical RAM for     wfc (w. buffer):      33.84 MB

     Dynamical RAM for           str. fact:       0.75 MB

     Dynamical RAM for           local pot:       0.00 MB

     Dynamical RAM for          nlocal pot:       3.38 MB

     Dynamical RAM for                qrad:       1.52 MB

     Dynamical RAM for          rho,v,vnew:       4.93 MB

     Dynamical RAM for               rhoin:       1.64 MB

     Dynamical RAM for            rho*nmix:      12.04 MB

     Dynamical RAM for           G-vectors:       3.20 MB

     Dynamical RAM for          h,s,v(r/c):       0.01 MB

     Dynamical RAM for          <psi|beta>:       0.01 MB

     Dynamical RAM for                 psi:       3.38 MB

     Dynamical RAM for                hpsi:       3.38 MB

     Dynamical RAM for                spsi:       3.38 MB

     Dynamical RAM for      wfcinit/wfcrot:       3.39 MB

     Dynamical RAM for           addusdens:     141.45 MB

     Estimated static dynamical RAM per process >      67.26 MB

     Estimated max dynamical RAM per process >     208.71 MB

     Estimated total dynamical RAM >       1.22 GB
 ----2D----2D----2D----2D----2D----2D----2D----2D----2D----2D----2D----2D
  The code is running with the 2D cutoff
  Please refer to:
  Sohier, T., Calandra, M., & Mauri, F. (2017), 
  Density functional perturbation theory for gated two-dimensional heterostructures:
  Theoretical developments and application to flexural phonons in graphene.
  Physical Review B, 96(7), 75448. https://doi.org/10.1103/PhysRevB.96.075448
 ----2D----2D----2D----2D----2D----2D----2D----2D----2D----2D----2D----2D

     Initial potential from superposition of free atoms

     starting charge   25.99991, renormalised to   28.00000

     negative rho (up, down):  6.311E-04 0.000E+00
     Starting wfcs are   18 randomized atomic wfcs

     total cpu time spent up to now is        3.3 secs

     Self-consistent Calculation

     iteration #  1     ecut=    90.00 Ry     beta= 0.70
     Davidson diagonalization with overlap
     ethr =  1.00E-02,  avg # of iterations =  8.1

     negative rho (up, down):  1.889E-04 0.000E+00

     total cpu time spent up to now is       16.8 secs

     total energy              =    -325.47265508 Ry
     estimated scf accuracy    <       2.45171229 Ry

     iteration #  2     ecut=    90.00 Ry     beta= 0.70
     Davidson diagonalization with overlap
     ethr =  8.76E-03,  avg # of iterations =  2.1

     negative rho (up, down):  1.990E-04 0.000E+00

     total cpu time spent up to now is       26.8 secs

     total energy              =    -326.36222679 Ry
     estimated scf accuracy    <       0.36980258 Ry

     iteration #  3     ecut=    90.00 Ry     beta= 0.70
     Davidson diagonalization with overlap
     ethr =  1.32E-03,  avg # of iterations =  2.2

     negative rho (up, down):  2.429E-04 0.000E+00

     total cpu time spent up to now is       36.5 secs

     total energy              =    -326.41754955 Ry
     estimated scf accuracy    <       0.00628231 Ry

     iteration #  4     ecut=    90.00 Ry     beta= 0.70
     Davidson diagonalization with overlap
     ethr =  2.24E-05,  avg # of iterations =  8.9

     negative rho (up, down):  2.606E-04 0.000E+00

     total cpu time spent up to now is       48.8 secs

     total energy              =    -326.41968525 Ry
     estimated scf accuracy    <       0.00041432 Ry

     iteration #  5     ecut=    90.00 Ry     beta= 0.70
     Davidson diagonalization with overlap
     ethr =  1.48E-06,  avg # of iterations =  4.6

     negative rho (up, down):  2.654E-04 0.000E+00

     total cpu time spent up to now is       59.3 secs

     total energy              =    -326.41974886 Ry
     estimated scf accuracy    <       0.00000656 Ry

     iteration #  6     ecut=    90.00 Ry     beta= 0.70
     Davidson diagonalization with overlap
     ethr =  2.34E-08,  avg # of iterations =  3.5

     negative rho (up, down):  2.661E-04 0.000E+00

     total cpu time spent up to now is       68.8 secs

     total energy              =    -326.41975203 Ry
     estimated scf accuracy    <       0.00000804 Ry

     iteration #  7     ecut=    90.00 Ry     beta= 0.70
     Davidson diagonalization with overlap
     ethr =  2.34E-08,  avg # of iterations =  2.0

     negative rho (up, down):  2.671E-04 0.000E+00

     total cpu time spent up to now is       76.2 secs

     total energy              =    -326.41975248 Ry
     estimated scf accuracy    <       0.00000121 Ry

     iteration #  8     ecut=    90.00 Ry     beta= 0.70
     Davidson diagonalization with overlap
     ethr =  4.33E-09,  avg # of iterations =  2.0

     negative rho (up, down):  2.673E-04 0.000E+00

     total cpu time spent up to now is       85.3 secs

     End of self-consistent calculation

          k = 0.0000 0.0000 0.0000 ( 37045 PWs)   bands (ev):

   -25.6546 -25.6546 -25.5766 -25.5766 -25.5619 -25.4920 -25.3495 -25.3495
   -25.2933 -25.2933 -13.5055  -7.4085  -4.5360  -4.5360  -4.0773  -2.2047
    -1.0413  -1.0413

     occupation numbers 
     1.0000   1.0000   1.0000   1.0000   1.0000   1.0000   1.0000   1.0000
     1.0000   1.0000   1.0000   1.0000   1.0155   1.0155   0.0207  -0.0000
    -0.0000  -0.0000

          k = 0.0000 0.0962 0.0000 ( 37017 PWs)   bands (ev):

   -25.6580 -25.6575 -25.5821 -25.5720 -25.5541 -25.4870 -25.3585 -25.3580
   -25.2888 -25.2852 -13.4467  -7.5090  -5.2127  -4.6591  -3.3335  -2.2031
    -1.1272  -0.8262

     occupation numbers 
     1.0000   1.0000   1.0000   1.0000   1.0000   1.0000   1.0000   1.0000
     1.0000   1.0000   1.0000   1.0000   1.0000   1.0326  -0.0000  -0.0000
    -0.0000  -0.0000

          k = 0.0000 0.1925 0.0000 ( 36989 PWs)   bands (ev):

   -25.6645 -25.6638 -25.5923 -25.5611 -25.5413 -25.4725 -25.3766 -25.3758
   -25.2817 -25.2694 -13.2719  -7.9052  -5.7185  -4.9449  -2.7690  -2.2346
    -0.9800   0.0199

     occupation numbers 
     1.0000   1.0000   1.0000   1.0000   1.0000   1.0000   1.0000   1.0000
     1.0000   1.0000   1.0000   1.0000   1.0000   1.0016  -0.0000  -0.0000
    -0.0000  -0.0000

          k = 0.0000 0.2887 0.0000 ( 36997 PWs)   bands (ev):

   -25.6701 -25.6689 -25.6044 -25.5486 -25.5321 -25.4507 -25.3951 -25.3935
   -25.2788 -25.2539 -12.9869  -8.6094  -5.7899  -5.2604  -2.8618  -2.3102
    -0.4900   0.2998

     occupation numbers 
     1.0000   1.0000   1.0000   1.0000   1.0000   1.0000   1.0000   1.0000
     1.0000   1.0000   1.0000   1.0000   1.0000   1.0000  -0.0000  -0.0000
    -0.0000  -0.0000

          k = 0.0000 0.3849 0.0000 ( 36965 PWs)   bands (ev):

   -25.6747 -25.6686 -25.6176 -25.5378 -25.5286 -25.4286 -25.4104 -25.4039
   -25.2812 -25.2416 -12.6084  -9.4062  -5.6089  -5.5230  -3.1862  -2.4940
    -0.2075   0.7160

     occupation numbers 
     1.0000   1.0000   1.0000   1.0000   1.0000   1.0000   1.0000   1.0000
     1.0000   1.0000   1.0000   1.0000   1.0000   1.0000  -0.0000  -0.0000
    -0.0000  -0.0000

          k = 0.0000 0.4811 0.0000 ( 36935 PWs)   bands (ev):

   -25.6773 -25.6639 -25.6303 -25.5308 -25.5289 -25.4220 -25.4203 -25.3968
   -25.2868 -25.2338 -12.1927 -10.1052  -5.6925  -5.3537  -3.5125  -2.6911
     0.1067   1.1289

     occupation numbers 
     1.0000   1.0000   1.0000   1.0000   1.0000   1.0000   1.0000   1.0000
     1.0000   1.0000   1.0000   1.0000   1.0000   1.0000  -0.0002  -0.0000
    -0.0000  -0.0000

          k = 0.0000-0.5774 0.0000 ( 36950 PWs)   bands (ev):

   -25.6781 -25.6598 -25.6370 -25.5295 -25.5284 -25.4237 -25.4227 -25.3896
   -25.2901 -25.2311 -11.9599 -10.4366  -5.7507  -5.2199  -3.6700  -2.7695
     0.3264   1.1721

     occupation numbers 
     1.0000   1.0000   1.0000   1.0000   1.0000   1.0000   1.0000   1.0000
     1.0000   1.0000   1.0000   1.0000   1.0000   1.0000  -0.0032  -0.0000
    -0.0000  -0.0000

          k = 0.0833 0.1443 0.0000 ( 37015 PWs)   bands (ev):

   -25.6628 -25.6621 -25.5888 -25.5660 -25.5431 -25.4775 -25.3721 -25.3701
   -25.2849 -25.2724 -13.3299  -7.7609  -5.6131  -4.9136  -2.7389  -2.2289
    -1.2366  -0.3506

     occupation numbers 
     1.0000   1.0000   1.0000   1.0000   1.0000   1.0000   1.0000   1.0000
     1.0000   1.0000   1.0000   1.0000   1.0000   1.0026  -0.0000  -0.0000
    -0.0000  -0.0000

          k = 0.0833 0.2406 0.0000 ( 36999 PWs)   bands (ev):

   -25.6705 -25.6659 -25.5994 -25.5565 -25.5291 -25.4607 -25.3894 -25.3869
   -25.2834 -25.2554 -13.0994  -8.3254  -5.7770  -5.2902  -2.4828  -2.2326
    -1.0068   0.1281

     occupation numbers 
     1.0000   1.0000   1.0000   1.0000   1.0000   1.0000   1.0000   1.0000
     1.0000   1.0000   1.0000   1.0000   1.0000   1.0000  -0.0000  -0.0000
    -0.0000  -0.0000

          k = 0.0833 0.3368 0.0000 ( 36982 PWs)   bands (ev):

   -25.6772 -25.6666 -25.6121 -25.5459 -25.5195 -25.4403 -25.4049 -25.4009
   -25.2865 -25.2400 -12.7649  -9.0741  -5.7434  -5.5510  -2.8502  -2.2095
    -0.4207   0.3402

     occupation numbers 
     1.0000   1.0000   1.0000   1.0000   1.0000   1.0000   1.0000   1.0000
     1.0000   1.0000   1.0000   1.0000   1.0000   1.0000  -0.0000  -0.0000
    -0.0000  -0.0000

          k = 0.0833 0.4330 0.0000 ( 36943 PWs)   bands (ev):

   -25.6816 -25.6634 -25.6252 -25.5364 -25.5171 -25.4273 -25.4166 -25.4014
   -25.2939 -25.2287 -12.3547  -9.8216  -5.9288  -5.3500  -3.2912  -2.3112
    -0.0275   0.5973

     occupation numbers 
     1.0000   1.0000   1.0000   1.0000   1.0000   1.0000   1.0000   1.0000
     1.0000   1.0000   1.0000   1.0000   1.0000   1.0000  -0.0000  -0.0000
    -0.0000  -0.0000

          k = 0.0833 0.5292 0.0000 ( 36963 PWs)   bands (ev):

   -25.6836 -25.6581 -25.6357 -25.5289 -25.5200 -25.4260 -25.4232 -25.3907
   -25.3013 -25.2227 -11.9796 -10.3795  -6.0532  -5.0991  -3.6381  -2.3961
     0.2161   0.8163

     occupation numbers 
     1.0000   1.0000   1.0000   1.0000   1.0000   1.0000   1.0000   1.0000
     1.0000   1.0000   1.0000   1.0000   1.0000   1.0001  -0.0020  -0.0000
    -0.0000  -0.0000

          k = 0.1667 0.2887 0.0000 ( 37021 PWs)   bands (ev):

   -25.6791 -25.6654 -25.6100 -25.5499 -25.5116 -25.4479 -25.4030 -25.3990
   -25.2914 -25.2372 -12.8177  -8.9388  -5.7887  -5.6459  -2.6574  -1.6989
    -0.9754   0.2467

     occupation numbers 
     1.0000   1.0000   1.0000   1.0000   1.0000   1.0000   1.0000   1.0000
     1.0000   1.0000   1.0000   1.0000   1.0000   1.0000  -0.0000  -0.0000
    -0.0000  -0.0000

          k = 0.1667 0.3849 0.0000 ( 36979 PWs)   bands (ev):

   -25.6868 -25.6621 -25.6222 -25.5401 -25.4989 -25.4398 -25.4143 -25.4023
   -25.3041 -25.2213 -12.4410  -9.6251  -6.2019  -5.3722  -3.0807  -1.5007
    -0.3487   0.2299

     occupation numbers 
     1.0000   1.0000   1.0000   1.0000   1.0000   1.0000   1.0000   1.0000
     1.0000   1.0000   1.0000   1.0000   1.0000   1.0000  -0.0000  -0.0000
    -0.0000  -0.0000

          k = 0.1667 0.4811 0.0000 ( 36940 PWs)   bands (ev):

   -25.6919 -25.6568 -25.6333 -25.5294 -25.4971 -25.4361 -25.4233 -25.3929
   -25.3185 -25.2107 -12.0163 -10.2626  -6.4605  -5.0320  -3.5379  -1.5121
     0.0116   0.3618

     occupation numbers 
     1.0000   1.0000   1.0000   1.0000   1.0000   1.0000   1.0000   1.0000
     1.0000   1.0000   1.0000   1.0000   1.0000   1.0004  -0.0004  -0.0000
    -0.0000  -0.0000

          k = 0.1667 0.5774 0.0000 ( 36920 PWs)   bands (ev):

   -25.6936 -25.6529 -25.6392 -25.5234 -25.5003 -25.4312 -25.4300 -25.3857
   -25.3262 -25.2070 -11.7615 -10.5926  -6.5475  -4.8300  -3.7833  -1.5260
    -0.0704   0.8220

     occupation numbers 
     1.0000   1.0000   1.0000   1.0000   1.0000   1.0000   1.0000   1.0000
     1.0000   1.0000   1.0000   1.0000   1.0000   1.0078  -0.0129  -0.0000
    -0.0000  -0.0000

          k = 0.2500 0.4330 0.0000 ( 36951 PWs)   bands (ev):

   -25.6953 -25.6565 -25.6323 -25.5297 -25.4791 -25.4483 -25.4233 -25.3939
   -25.3257 -25.2059 -12.0335 -10.2022  -6.6290  -5.0242  -3.4795  -0.6865
    -0.1153  -0.0523

     occupation numbers 
     1.0000   1.0000   1.0000   1.0000   1.0000   1.0000   1.0000   1.0000
     1.0000   1.0000   1.0000   1.0000   1.0000   1.0004  -0.0001  -0.0000
    -0.0000  -0.0000

          k = 0.2500 0.5292 0.0000 ( 36921 PWs)   bands (ev):

   -25.7002 -25.6509 -25.6402 -25.5203 -25.4734 -25.4456 -25.4335 -25.3822
   -25.3452 -25.1974 -11.6126 -10.7140  -6.8568  -4.6587  -3.8798  -0.4609
    -0.3110   0.6557

     occupation numbers 
     1.0000   1.0000   1.0000   1.0000   1.0000   1.0000   1.0000   1.0000
     1.0000   1.0000   1.0000   1.0000   1.0000   1.0326  -0.0283  -0.0000
    -0.0000  -0.0000

          k = 0.3333 0.5774 0.0000 ( 36894 PWs)   bands (ev):

   -25.7033 -25.6458 -25.6457 -25.5160 -25.4520 -25.4493 -25.4492 -25.3673
   -25.3673 -25.1926 -11.1696 -11.1696  -6.9997  -4.2632  -4.2631  -0.4882
     0.5546   0.5547

     occupation numbers 
     1.0000   1.0000   1.0000   1.0000   1.0000   1.0000   1.0000   1.0000
     1.0000   1.0000   1.0000   1.0000   1.0000   0.4345   0.4345  -0.0000
    -0.0000  -0.0000

     the Fermi energy is    -4.2843 ev

!    total energy              =    -326.41975277 Ry
     estimated scf accuracy    <          4.1E-09 Ry
     smearing contrib. (-TS)   =       0.00047457 Ry
     internal energy E=F+TS    =    -326.42022734 Ry

     The total energy is F=E-TS. E is the sum of the following terms:
     one-electron contribution =   -1304.59474840 Ry
     hartree contribution      =     657.79473705 Ry
     xc contribution           =     -95.00800074 Ry
     ewald contribution        =     415.38778475 Ry

     convergence has been achieved in   8 iterations

     Writing output data file ../tmp/stanene.save/

     init_run     :      3.10s CPU      3.22s WALL (       1 calls)
     electrons    :     79.96s CPU     82.04s WALL (       1 calls)

     Called by init_run:
     wfcinit      :      2.49s CPU      2.54s WALL (       1 calls)
     wfcinit:atom :      0.02s CPU      0.03s WALL (      19 calls)
     wfcinit:wfcr :      2.35s CPU      2.39s WALL (      19 calls)
     potinit      :      0.18s CPU      0.20s WALL (       1 calls)
     hinit0       :      0.21s CPU      0.21s WALL (       1 calls)

     Called by electrons:
     c_bands      :     67.30s CPU     68.62s WALL (       8 calls)
     sum_band     :     10.80s CPU     11.27s WALL (       8 calls)
     v_of_rho     :      0.62s CPU      0.65s WALL (       9 calls)
     v_h          :      0.04s CPU      0.05s WALL (       9 calls)
     v_xc         :      0.58s CPU      0.60s WALL (       9 calls)
     newd         :      1.29s CPU      1.59s WALL (       9 calls)
     mix_rho      :      0.13s CPU      0.13s WALL (       8 calls)

     Called by c_bands:
     init_us_2    :      0.56s CPU      0.57s WALL (     323 calls)
     cegterg      :     65.39s CPU     66.70s WALL (     152 calls)

     Called by sum_band:
     sum_band:wei :      0.00s CPU      0.00s WALL (       8 calls)
     sum_band:loo :      9.18s CPU      9.32s WALL (       8 calls)
     sum_band:buf :      0.09s CPU      0.09s WALL (     152 calls)
     sum_band:ini :      0.27s CPU      0.27s WALL (     152 calls)
     sum_band:cal :      1.41s CPU      1.41s WALL (     152 calls)
     sum_band:bec :      0.00s CPU      0.00s WALL (     152 calls)
     addusdens    :      1.41s CPU      1.74s WALL (       8 calls)
     addusd:skk   :      0.00s CPU      0.00s WALL (       8 calls)
     addusd:dgemm :      0.53s CPU      0.85s WALL (       8 calls)
     addusd:qvan2 :      0.75s CPU      0.75s WALL (       8 calls)

     Called by *egterg:
     cdiaghg      :      0.50s CPU      0.51s WALL (     784 calls)
     cegterg:over :      6.11s CPU      6.13s WALL (     632 calls)
     cegterg:upda :      3.10s CPU      3.11s WALL (     632 calls)
     cegterg:last :      6.31s CPU      6.33s WALL (     358 calls)
     cdiaghg:chol :      0.07s CPU      0.07s WALL (     784 calls)
     cdiaghg:inve :      0.01s CPU      0.01s WALL (     784 calls)
     cdiaghg:para :      0.08s CPU      0.08s WALL (    1568 calls)
     h_psi        :     45.88s CPU     47.19s WALL (     803 calls)
     s_psi        :      3.19s CPU      3.19s WALL (     803 calls)
     g_psi        :      0.27s CPU      0.27s WALL (     632 calls)

     Called by h_psi:
     h_psi:calbec :      4.45s CPU      4.51s WALL (     803 calls)
     vloc_psi     :     37.83s CPU     39.07s WALL (     803 calls)
     add_vuspsi   :      3.42s CPU      3.42s WALL (     803 calls)

     General routines
     calbec       :      5.85s CPU      5.92s WALL (     955 calls)
     fft          :      0.46s CPU      0.48s WALL (      99 calls)
     ffts         :      0.03s CPU      0.03s WALL (       8 calls)
     fftw         :     38.18s CPU     39.35s WALL (   19788 calls)

     Parallel routines
     fft_scatt_xy :      6.55s CPU      6.75s WALL (   19895 calls)
     fft_scatt_yz :     12.51s CPU     12.93s WALL (   19895 calls)

     PWSCF        :   1m23.20s CPU   1m25.52s WALL


   This run was terminated on:  13:54:36  27Jan2024            

=------------------------------------------------------------------------------=
   JOB DONE.
=------------------------------------------------------------------------------=
