### Running on host: handarmsi

     Program PWSCF v.7.2 starts on 20Jun2024 at  1:38:12 

     This program is part of the open-source Quantum ESPRESSO suite
     for quantum simulation of materials; please cite
         "P. Giannozzi et al., J. Phys.:Condens. Matter 21 395502 (2009);
         "P. Giannozzi et al., J. Phys.:Condens. Matter 29 465901 (2017);
         "P. Giannozzi et al., J. Chem. Phys. 152 154105 (2020);
          URL http://www.quantum-espresso.org", 
     in publications or presentations arising from this work. More details at
     http://www.quantum-espresso.org/quote

     Parallel version (MPI), running on     1 processors

     MPI processes distributed on     1 nodes
     5292 MiB available memory on the printing compute node when the environment starts

     Reading input from sn_scf_kpoints-48.in

     Current dimensions of program PWSCF are:
     Max number of different atomic species (ntypx) = 10
     Max number of k-points (npk) =  40000
     Max angular momentum in pseudopotentials (lmaxx) =  4

     Subspace diagonalization in iterative solution of the eigenvalue problem:
     a serial algorithm will be used


     G-vector sticks info
     --------------------
     sticks:   dense  smooth     PW     G-vecs:    dense   smooth      PW
     Sum         859     859    253                87375    87375   13629

     Using Slab Decomposition



     bravais-lattice index     =            4
     lattice parameter (alat)  =       8.8439  a.u.
     unit-cell volume          =    2560.0529 (a.u.)^3
     number of atoms/cell      =            2
     number of atomic types    =            1
     number of electrons       =        28.00
     number of Kohn-Sham states=           18
     kinetic-energy cutoff     =      40.0000  Ry
     charge density cutoff     =     160.0000  Ry
     scf convergence threshold =      1.0E-06
     mixing beta               =       0.7000
     number of iterations used =            8  plain     mixing
     Exchange-correlation= SLA  PW   PBE  PBE
                           (   1   4   3   4   0   0   0)

     celldm(1)=   8.843918  celldm(2)=   0.000000  celldm(3)=   4.273504
     celldm(4)=   0.000000  celldm(5)=   0.000000  celldm(6)=   0.000000

     crystal axes: (cart. coord. in units of alat)
               a(1) = (   1.000000   0.000000   0.000000 )  
               a(2) = (  -0.500000   0.866025   0.000000 )  
               a(3) = (   0.000000   0.000000   4.273504 )  

     reciprocal axes: (cart. coord. in units 2 pi/alat)
               b(1) = (  1.000000  0.577350 -0.000000 )  
               b(2) = (  0.000000  1.154701  0.000000 )  
               b(3) = (  0.000000 -0.000000  0.234000 )  


     PseudoPot. # 1 for Sn read from file:
     ../pseudo/Sn_pbe_v1.uspp.F.UPF
     MD5 check sum: 4cf58ce39ec5d5d420df3dd08604eb00
     Pseudo is Ultrasoft + core correction, Zval = 14.0
     Generated by new atomic code, or converted to UPF format
     Using radial grid of  891 points,  6 beta functions with: 
                l(1) =   0
                l(2) =   0
                l(3) =   1
                l(4) =   1
                l(5) =   2
                l(6) =   2
     Q(r) pseudized with  6 coefficients,  rinner =    1.200   1.200   1.200
                                                       1.200   1.200

     atomic species   valence    mass     pseudopotential
        Sn            14.00   118.71000     Sn( 1.00)

     24 Sym. Ops., with inversion, found



   Cartesian axes

     site n.     atom                  positions (alat units)
         1           Sn  tau(   1) = (   0.0000000   0.5773503   2.1367521  )
         2           Sn  tau(   2) = (   0.5000000   0.2886751   2.1367521  )

     number of k points=   217  Methfessel-Paxton smearing, width (Ry)=  0.0200

     Number of k-points >= 100: set verbosity='high' to print them.

     Dense  grid:    87375 G-vectors     FFT dimensions: (  36,  36, 160)

     Estimated max dynamical RAM per process >     963.10 MB

     Check: negative core charge=   -0.000001

     Initial potential from superposition of free atoms

     starting charge      25.9999, renormalised to      28.0000

     negative rho (up, down):  1.678E-02 0.000E+00
     Starting wfcs are   18 randomized atomic wfcs

     total cpu time spent up to now is       50.1 secs

     Self-consistent Calculation

     iteration #  1     ecut=    40.00 Ry     beta= 0.70
     Davidson diagonalization with overlap
     ethr =  1.00E-02,  avg # of iterations =  7.9

     negative rho (up, down):  1.016E-02 0.000E+00

     total cpu time spent up to now is      345.5 secs

     total energy              =    -325.42423588 Ry
     estimated scf accuracy    <       2.50086504 Ry

     iteration #  2     ecut=    40.00 Ry     beta= 0.70
     Davidson diagonalization with overlap
     ethr =  8.93E-03,  avg # of iterations =  2.1

     negative rho (up, down):  1.245E-02 0.000E+00

     total cpu time spent up to now is      530.2 secs

     total energy              =    -326.33239556 Ry
     estimated scf accuracy    <       0.37448479 Ry

     iteration #  3     ecut=    40.00 Ry     beta= 0.70
     Davidson diagonalization with overlap
     ethr =  1.34E-03,  avg # of iterations =  2.2

     negative rho (up, down):  1.417E-02 0.000E+00

     total cpu time spent up to now is      714.8 secs

     total energy              =    -326.39071392 Ry
     estimated scf accuracy    <       0.00548214 Ry

     iteration #  4     ecut=    40.00 Ry     beta= 0.70
     Davidson diagonalization with overlap
     ethr =  1.96E-05,  avg # of iterations = 10.1

     negative rho (up, down):  1.419E-02 0.000E+00

     total cpu time spent up to now is     1017.8 secs

     total energy              =    -326.39266176 Ry
     estimated scf accuracy    <       0.00069578 Ry

     iteration #  5     ecut=    40.00 Ry     beta= 0.70
     Davidson diagonalization with overlap
     c_bands:  1 eigenvalues not converged
     c_bands:  1 eigenvalues not converged
     ethr =  2.48E-06,  avg # of iterations =  4.1

     negative rho (up, down):  1.416E-02 0.000E+00

     total cpu time spent up to now is     1203.8 secs

     End of self-consistent calculation

     Number of k-points >= 100: set verbosity='high' to print the bands.

     the Fermi energy is    -2.2969 ev

!    total energy              =    -326.39281399 Ry
     estimated scf accuracy    <       0.00000040 Ry
     smearing contrib. (-TS)   =       0.00023720 Ry
     internal energy E=F+TS    =    -326.39305119 Ry

     The total energy is F=E-TS. E is the sum of the following terms:
     one-electron contribution =    -882.82193550 Ry
     hartree contribution      =     448.52593508 Ry
     xc contribution           =     -95.07535452 Ry
     ewald contribution        =     202.97830376 Ry

     convergence has been achieved in   5 iterations

     Writing all to output data dir ../tmp/stanene.save/

     init_run     :    120.80s CPU     50.06s WALL (       1 calls)
     electrons    :   2675.68s CPU   1153.77s WALL (       1 calls)

     Called by init_run:
     wfcinit      :    119.73s CPU     49.08s WALL (       1 calls)
     potinit      :      0.08s CPU      0.10s WALL (       1 calls)
     hinit0       :      0.48s CPU      0.49s WALL (       1 calls)

     Called by electrons:
     c_bands      :   2315.68s CPU    988.05s WALL (       5 calls)
     sum_band     :    336.43s CPU    154.64s WALL (       5 calls)
     v_of_rho     :      0.29s CPU      0.32s WALL (       6 calls)
     newd         :     23.44s CPU     10.90s WALL (       6 calls)
     mix_rho      :      0.03s CPU      0.03s WALL (       5 calls)

     Called by c_bands:
     init_us_2    :     20.89s CPU      6.62s WALL (    2387 calls)
     init_us_2:cp :     20.87s CPU      6.61s WALL (    2387 calls)
     cegterg      :   2266.07s CPU    971.96s WALL (    1085 calls)

     Called by *egterg:
     cdiaghg      :     25.19s CPU      9.52s WALL (    6839 calls)
     h_psi        :   1774.00s CPU    791.16s WALL (    7056 calls)
     s_psi        :     63.02s CPU     21.87s WALL (    7056 calls)
     g_psi        :      4.30s CPU      1.65s WALL (    5754 calls)

     Called by h_psi:
     h_psi:calbec :   1190.09s CPU    595.16s WALL (    7056 calls)
     vloc_psi     :    517.26s CPU    172.64s WALL (    7056 calls)
     add_vuspsi   :     62.97s CPU     21.90s WALL (    7056 calls)

     General routines
     calbec       :   1446.87s CPU    723.24s WALL (    8141 calls)
     fft          :      0.41s CPU      0.42s WALL (      66 calls)
     ffts         :      0.02s CPU      0.01s WALL (       5 calls)
     fftw         :    497.41s CPU    163.87s WALL (  153978 calls)

     Parallel routines

     PWSCF        :  46m36.79s CPU  20m 4.74s WALL


   This run was terminated on:   1:58:17  20Jun2024            

=------------------------------------------------------------------------------=
   JOB DONE.
=------------------------------------------------------------------------------=
