### Running on host: handarmsi

     Program PWSCF v.7.2 starts on 19Jun2024 at 23:46:36 

     This program is part of the open-source Quantum ESPRESSO suite
     for quantum simulation of materials; please cite
         "P. Giannozzi et al., J. Phys.:Condens. Matter 21 395502 (2009);
         "P. Giannozzi et al., J. Phys.:Condens. Matter 29 465901 (2017);
         "P. Giannozzi et al., J. Chem. Phys. 152 154105 (2020);
          URL http://www.quantum-espresso.org", 
     in publications or presentations arising from this work. More details at
     http://www.quantum-espresso.org/quote

     Parallel version (MPI), running on     1 processors

     MPI processes distributed on     1 nodes
     5849 MiB available memory on the printing compute node when the environment starts

     Reading input from sn_scf_kpoints-20.in

     Current dimensions of program PWSCF are:
     Max number of different atomic species (ntypx) = 10
     Max number of k-points (npk) =  40000
     Max angular momentum in pseudopotentials (lmaxx) =  4

     Subspace diagonalization in iterative solution of the eigenvalue problem:
     a serial algorithm will be used


     G-vector sticks info
     --------------------
     sticks:   dense  smooth     PW     G-vecs:    dense   smooth      PW
     Sum         859     859    253                87375    87375   13557

     Using Slab Decomposition



     bravais-lattice index     =            4
     lattice parameter (alat)  =       8.8439  a.u.
     unit-cell volume          =    2560.0529 (a.u.)^3
     number of atoms/cell      =            2
     number of atomic types    =            1
     number of electrons       =        28.00
     number of Kohn-Sham states=           18
     kinetic-energy cutoff     =      40.0000  Ry
     charge density cutoff     =     160.0000  Ry
     scf convergence threshold =      1.0E-06
     mixing beta               =       0.7000
     number of iterations used =            8  plain     mixing
     Exchange-correlation= SLA  PW   PBE  PBE
                           (   1   4   3   4   0   0   0)

     celldm(1)=   8.843918  celldm(2)=   0.000000  celldm(3)=   4.273504
     celldm(4)=   0.000000  celldm(5)=   0.000000  celldm(6)=   0.000000

     crystal axes: (cart. coord. in units of alat)
               a(1) = (   1.000000   0.000000   0.000000 )  
               a(2) = (  -0.500000   0.866025   0.000000 )  
               a(3) = (   0.000000   0.000000   4.273504 )  

     reciprocal axes: (cart. coord. in units 2 pi/alat)
               b(1) = (  1.000000  0.577350 -0.000000 )  
               b(2) = (  0.000000  1.154701  0.000000 )  
               b(3) = (  0.000000 -0.000000  0.234000 )  


     PseudoPot. # 1 for Sn read from file:
     ../pseudo/Sn_pbe_v1.uspp.F.UPF
     MD5 check sum: 4cf58ce39ec5d5d420df3dd08604eb00
     Pseudo is Ultrasoft + core correction, Zval = 14.0
     Generated by new atomic code, or converted to UPF format
     Using radial grid of  891 points,  6 beta functions with: 
                l(1) =   0
                l(2) =   0
                l(3) =   1
                l(4) =   1
                l(5) =   2
                l(6) =   2
     Q(r) pseudized with  6 coefficients,  rinner =    1.200   1.200   1.200
                                                       1.200   1.200

     atomic species   valence    mass     pseudopotential
        Sn            14.00   118.71000     Sn( 1.00)

     24 Sym. Ops., with inversion, found



   Cartesian axes

     site n.     atom                  positions (alat units)
         1           Sn  tau(   1) = (   0.0000000   0.5773503   2.1367521  )
         2           Sn  tau(   2) = (   0.5000000   0.2886751   2.1367521  )

     number of k points=    44  Methfessel-Paxton smearing, width (Ry)=  0.0200
                       cart. coord. in units 2pi/alat
        k(    1) = (   0.0000000   0.0000000   0.0000000), wk =   0.0050000
        k(    2) = (   0.0000000   0.0577350   0.0000000), wk =   0.0300000
        k(    3) = (   0.0000000   0.1154701   0.0000000), wk =   0.0300000
        k(    4) = (   0.0000000   0.1732051   0.0000000), wk =   0.0300000
        k(    5) = (   0.0000000   0.2309401   0.0000000), wk =   0.0300000
        k(    6) = (   0.0000000   0.2886751   0.0000000), wk =   0.0300000
        k(    7) = (   0.0000000   0.3464102   0.0000000), wk =   0.0300000
        k(    8) = (   0.0000000   0.4041452   0.0000000), wk =   0.0300000
        k(    9) = (   0.0000000   0.4618802   0.0000000), wk =   0.0300000
        k(   10) = (   0.0000000   0.5196152   0.0000000), wk =   0.0300000
        k(   11) = (   0.0000000  -0.5773503   0.0000000), wk =   0.0150000
        k(   12) = (   0.0500000   0.0866025   0.0000000), wk =   0.0300000
        k(   13) = (   0.0500000   0.1443376   0.0000000), wk =   0.0600000
        k(   14) = (   0.0500000   0.2020726   0.0000000), wk =   0.0600000
        k(   15) = (   0.0500000   0.2598076   0.0000000), wk =   0.0600000
        k(   16) = (   0.0500000   0.3175426   0.0000000), wk =   0.0600000
        k(   17) = (   0.0500000   0.3752777   0.0000000), wk =   0.0600000
        k(   18) = (   0.0500000   0.4330127   0.0000000), wk =   0.0600000
        k(   19) = (   0.0500000   0.4907477   0.0000000), wk =   0.0600000
        k(   20) = (   0.0500000   0.5484828   0.0000000), wk =   0.0600000
        k(   21) = (   0.1000000   0.1732051   0.0000000), wk =   0.0300000
        k(   22) = (   0.1000000   0.2309401   0.0000000), wk =   0.0600000
        k(   23) = (   0.1000000   0.2886751   0.0000000), wk =   0.0600000
        k(   24) = (   0.1000000   0.3464102   0.0000000), wk =   0.0600000
        k(   25) = (   0.1000000   0.4041452   0.0000000), wk =   0.0600000
        k(   26) = (   0.1000000   0.4618802   0.0000000), wk =   0.0600000
        k(   27) = (   0.1000000   0.5196152   0.0000000), wk =   0.0600000
        k(   28) = (   0.1000000   0.5773503   0.0000000), wk =   0.0300000
        k(   29) = (   0.1500000   0.2598076   0.0000000), wk =   0.0300000
        k(   30) = (   0.1500000   0.3175426   0.0000000), wk =   0.0600000
        k(   31) = (   0.1500000   0.3752777   0.0000000), wk =   0.0600000
        k(   32) = (   0.1500000   0.4330127   0.0000000), wk =   0.0600000
        k(   33) = (   0.1500000   0.4907477   0.0000000), wk =   0.0600000
        k(   34) = (   0.1500000   0.5484828   0.0000000), wk =   0.0600000
        k(   35) = (   0.2000000   0.3464102   0.0000000), wk =   0.0300000
        k(   36) = (   0.2000000   0.4041452   0.0000000), wk =   0.0600000
        k(   37) = (   0.2000000   0.4618802   0.0000000), wk =   0.0600000
        k(   38) = (   0.2000000   0.5196152   0.0000000), wk =   0.0600000
        k(   39) = (   0.2000000   0.5773503   0.0000000), wk =   0.0300000
        k(   40) = (   0.2500000   0.4330127   0.0000000), wk =   0.0300000
        k(   41) = (   0.2500000   0.4907477   0.0000000), wk =   0.0600000
        k(   42) = (   0.2500000   0.5484828   0.0000000), wk =   0.0600000
        k(   43) = (   0.3000000   0.5196152   0.0000000), wk =   0.0300000
        k(   44) = (   0.3000000   0.5773503   0.0000000), wk =   0.0300000

     Dense  grid:    87375 G-vectors     FFT dimensions: (  36,  36, 160)

     Estimated max dynamical RAM per process >     443.42 MB

     Check: negative core charge=   -0.000001

     Initial potential from superposition of free atoms

     starting charge      25.9999, renormalised to      28.0000

     negative rho (up, down):  1.678E-02 0.000E+00
     Starting wfcs are   18 randomized atomic wfcs

     total cpu time spent up to now is       12.4 secs

     Self-consistent Calculation

     iteration #  1     ecut=    40.00 Ry     beta= 0.70
     Davidson diagonalization with overlap
     ethr =  1.00E-02,  avg # of iterations =  7.9

     negative rho (up, down):  1.068E-02 0.000E+00

     total cpu time spent up to now is       71.9 secs

     total energy              =    -325.42281158 Ry
     estimated scf accuracy    <       2.50304054 Ry

     iteration #  2     ecut=    40.00 Ry     beta= 0.70
     Davidson diagonalization with overlap
     ethr =  8.94E-03,  avg # of iterations =  2.1

     negative rho (up, down):  1.269E-02 0.000E+00

     total cpu time spent up to now is      107.0 secs

     total energy              =    -326.33227791 Ry
     estimated scf accuracy    <       0.37545136 Ry

     iteration #  3     ecut=    40.00 Ry     beta= 0.70
     Davidson diagonalization with overlap
     ethr =  1.34E-03,  avg # of iterations =  2.2

     negative rho (up, down):  1.418E-02 0.000E+00

     total cpu time spent up to now is      143.0 secs

     total energy              =    -326.39068657 Ry
     estimated scf accuracy    <       0.00552378 Ry

     iteration #  4     ecut=    40.00 Ry     beta= 0.70
     Davidson diagonalization with overlap
     ethr =  1.97E-05,  avg # of iterations =  9.7

     negative rho (up, down):  1.418E-02 0.000E+00

     total cpu time spent up to now is      206.9 secs

     total energy              =    -326.39264101 Ry
     estimated scf accuracy    <       0.00070502 Ry

     iteration #  5     ecut=    40.00 Ry     beta= 0.70
     Davidson diagonalization with overlap
     ethr =  2.52E-06,  avg # of iterations =  4.0

     negative rho (up, down):  1.416E-02 0.000E+00

     total cpu time spent up to now is      247.8 secs

     End of self-consistent calculation

          k = 0.0000 0.0000 0.0000 ( 10895 PWs)   bands (ev):

   -24.1440 -24.1295 -24.1295 -24.0323 -24.0323 -23.8660 -23.8660 -23.8004
   -23.8004 -23.7361 -12.2413  -4.3240  -3.7115  -3.3762  -3.3762   0.6490
     0.6490   0.6871

          k = 0.0000 0.0577 0.0000 ( 10907 PWs)   bands (ev):

   -24.1457 -24.1361 -24.1337 -24.0329 -24.0314 -23.8599 -23.8588 -23.8016
   -23.7999 -23.7358 -12.2199  -4.3019  -4.2695  -3.4243  -2.8452   0.6053
     0.7365   0.7402

          k = 0.0000 0.1155 0.0000 ( 10877 PWs)   bands (ev):

   -24.1580 -24.1534 -24.1369 -24.0345 -24.0285 -23.8441 -23.8395 -23.8049
   -23.7983 -23.7349 -12.1560  -4.9673  -4.2356  -3.5549  -2.2504   0.5829
     0.8251   1.0001

          k = 0.0000 0.1732 0.0000 ( 10905 PWs)   bands (ev):

   -24.1803 -24.1768 -24.1357 -24.0369 -24.0237 -23.8239 -23.8132 -23.8103
   -23.7959 -23.7322 -12.0499  -5.6586  -4.1262  -3.7371  -1.8024   0.6879
     0.9625   1.3970

          k = 0.0000 0.2309 0.0000 ( 10895 PWs)   bands (ev):

   -24.2055 -24.2022 -24.1331 -24.0399 -24.0175 -23.8174 -23.8052 -23.7929
   -23.7840 -23.7260 -11.9026  -6.3284  -3.9751  -3.9395  -1.5726   0.9601
     1.0749   1.2091

          k = 0.0000 0.2887 0.0000 ( 10909 PWs)   bands (ev):

   -24.2303 -24.2268 -24.1299 -24.0432 -24.0100 -23.8259 -23.7923 -23.7897
   -23.7554 -23.7146 -11.7158  -6.9670  -4.1381  -3.7851  -1.5269   0.5866
     1.2343   1.7101

          k = 0.0000 0.3464 0.0000 ( 10922 PWs)   bands (ev):

   -24.2527 -24.2486 -24.1267 -24.0463 -24.0017 -23.8350 -23.7865 -23.7859
   -23.7293 -23.6994 -11.4932  -7.5657  -4.3165  -3.5607  -1.5731   0.0982
     1.5001   2.1680

          k = 0.0000 0.4041 0.0000 ( 10942 PWs)   bands (ev):

   -24.2712 -24.2666 -24.1236 -24.0491 -23.9934 -23.8442 -23.7838 -23.7835
   -23.7076 -23.6838 -11.2424  -8.1128  -4.4639  -3.3107  -1.6461  -0.3681
     1.7973   2.4443

          k = 0.0000 0.4619 0.0000 ( 10942 PWs)   bands (ev):

   -24.2851 -24.2800 -24.1212 -24.0513 -23.9860 -23.8522 -23.7831 -23.7816
   -23.6912 -23.6709 -10.9809  -8.5879  -4.5733  -3.0533  -1.7126  -0.7850
     2.1333   2.7585

          k = 0.0000 0.5196 0.0000 ( 10932 PWs)   bands (ev):

   -24.2936 -24.2882 -24.1196 -24.0527 -23.9808 -23.8579 -23.7833 -23.7802
   -23.6811 -23.6626 -10.7529  -8.9449  -4.6406  -2.8320  -1.7570  -1.1039
     2.5062   3.0842

          k = 0.0000-0.5774 0.0000 ( 10920 PWs)   bands (ev):

   -24.2965 -24.2909 -24.1191 -24.0531 -23.9789 -23.8599 -23.7834 -23.7798
   -23.6777 -23.6598 -10.6525  -9.0884  -4.6632  -2.7357  -1.7724  -1.2330
     2.8358   3.0252

          k = 0.0500 0.0866 0.0000 ( 10885 PWs)   bands (ev):

   -24.1556 -24.1430 -24.1395 -24.0340 -24.0294 -23.8491 -23.8456 -23.8038
   -23.7988 -23.7353 -12.1773  -4.7782  -4.2577  -3.5209  -2.3911   0.5647
     0.7944   0.9322

          k = 0.0500 0.1443 0.0000 ( 10897 PWs)   bands (ev):

   -24.1778 -24.1597 -24.1388 -24.0361 -24.0255 -23.8311 -23.8233 -23.8083
   -23.7967 -23.7334 -12.0923  -5.4103  -4.1698  -3.6933  -1.8979   0.5648
     0.8949   1.3000

          k = 0.0500 0.2021 0.0000 ( 10907 PWs)   bands (ev):

   -24.2044 -24.1810 -24.1364 -24.0389 -24.0199 -23.8146 -23.8114 -23.7969
   -23.7940 -23.7284 -11.9655  -6.0590  -4.0395  -3.9022  -1.5452   0.7210
     1.0475   1.2669

          k = 0.0500 0.2598 0.0000 ( 10900 PWs)   bands (ev):

   -24.2315 -24.2033 -24.1333 -24.0421 -24.0128 -23.8226 -23.7955 -23.7908
   -23.7703 -23.7181 -11.7982  -6.6942  -4.1170  -3.8687  -1.3960   0.7990
     1.0560   1.2999

          k = 0.0500 0.3175 0.0000 ( 10921 PWs)   bands (ev):

   -24.2566 -24.2244 -24.1300 -24.0454 -24.0047 -23.8316 -23.7875 -23.7865
   -23.7458 -23.7020 -11.5930  -7.3010  -4.3166  -3.6609  -1.3934   0.3165
     1.3690   1.8016

          k = 0.0500 0.3753 0.0000 ( 10938 PWs)   bands (ev):

   -24.2783 -24.2426 -24.1268 -24.0485 -23.9962 -23.8410 -23.7845 -23.7830
   -23.7245 -23.6838 -11.3549  -7.8670  -4.4878  -3.4223  -1.4521  -0.1572
     1.6578   2.3121

          k = 0.0500 0.4330 0.0000 ( 10953 PWs)   bands (ev):

   -24.2953 -24.2571 -24.1240 -24.0510 -23.9880 -23.8500 -23.7821 -23.7819
   -23.7076 -23.6673 -11.0952  -8.3763  -4.6220  -3.1651  -1.5214  -0.5986
     1.9760   2.6037

          k = 0.0500 0.4907 0.0000 ( 10937 PWs)   bands (ev):

   -24.3070 -24.2671 -24.1219 -24.0528 -23.9813 -23.8572 -23.7823 -23.7801
   -23.6959 -23.6553 -10.8414  -8.7981  -4.7139  -2.9171  -1.5765  -0.9728
     2.3321   2.9099

          k = 0.0500 0.5485 0.0000 ( 10922 PWs)   bands (ev):

   -24.3130 -24.2722 -24.1208 -24.0538 -23.9774 -23.8613 -23.7825 -23.7792
   -23.6898 -23.6490 -10.6614  -9.0627  -4.7606  -2.7435  -1.6062  -1.2105
     2.7157   3.1488

          k = 0.1000 0.1732 0.0000 ( 10879 PWs)   bands (ev):

   -24.2046 -24.1705 -24.1399 -24.0386 -24.0206 -23.8138 -23.8134 -23.8021
   -23.7942 -23.7290 -11.9865  -5.9555  -4.0610  -3.9143  -1.4866   0.5543
     1.0069   1.3376

          k = 0.1000 0.2309 0.0000 ( 10893 PWs)   bands (ev):

   -24.2329 -24.1862 -24.1385 -24.0418 -24.0140 -23.8212 -23.7956 -23.7911
   -23.7817 -23.7186 -11.8396  -6.5327  -4.1630  -3.9108  -1.1668   0.6869
     0.9200   1.1683

          k = 0.1000 0.2887 0.0000 ( 10915 PWs)   bands (ev):

   -24.2602 -24.2033 -24.1359 -24.0453 -24.0059 -23.8300 -23.7877 -23.7839
   -23.7627 -23.7011 -11.6533  -7.1093  -4.4029  -3.7216  -1.0268   0.4699
     1.0433   1.3875

          k = 0.1000 0.3464 0.0000 ( 10945 PWs)   bands (ev):

   -24.2845 -24.2195 -24.1328 -24.0486 -23.9970 -23.8398 -23.7844 -23.7795
   -23.7442 -23.6801 -11.4309  -7.6656  -4.6142  -3.4979  -1.0235   0.0119
     1.5030   1.7421

          k = 0.1000 0.4041 0.0000 ( 10954 PWs)   bands (ev):

   -24.3046 -24.2332 -24.1299 -24.0516 -23.9879 -23.8497 -23.7815 -23.7788
   -23.7281 -23.6603 -11.1798  -8.1846  -4.7859  -3.2479  -1.0740  -0.4324
     1.8523   2.3535

          k = 0.1000 0.4619 0.0000 ( 10950 PWs)   bands (ev):

   -24.3195 -24.2436 -24.1275 -24.0539 -23.9796 -23.8585 -23.7793 -23.7792
   -23.7157 -23.6447 -10.9163  -8.6432  -4.9117  -2.9889  -1.1299  -0.8361
     2.1965   2.7331

          k = 0.1000 0.5196 0.0000 ( 10933 PWs)   bands (ev):

   -24.3287 -24.2500 -24.1259 -24.0554 -23.9736 -23.8649 -23.7799 -23.7778
   -23.7079 -23.6348 -10.6836  -8.9945  -4.9884  -2.7631  -1.1695  -1.1509
     2.5700   2.8866

          k = 0.1000 0.5774 0.0000 ( 10925 PWs)   bands (ev):

   -24.3318 -24.2522 -24.1254 -24.0559 -23.9714 -23.8673 -23.7802 -23.7773
   -23.7053 -23.6314 -10.5795  -9.1384  -5.0142  -2.6632  -1.2808  -1.1836
     2.8957   2.9195

          k = 0.1500 0.2598 0.0000 ( 10921 PWs)   bands (ev):

   -24.2614 -24.1943 -24.1395 -24.0453 -24.0062 -23.8296 -23.7877 -23.7792
   -23.7728 -23.7005 -11.6734  -7.0374  -4.4497  -3.7419  -0.7923   0.5264
     0.7328   1.3422

          k = 0.1500 0.3175 0.0000 ( 10923 PWs)   bands (ev):

   -24.2878 -24.2042 -24.1390 -24.0490 -23.9971 -23.8395 -23.7842 -23.7724
   -23.7605 -23.6779 -11.4692  -7.5478  -4.7172  -3.5361  -0.5666   0.1088
     1.0036   1.5665

          k = 0.1500 0.3753 0.0000 ( 10943 PWs)   bands (ev):

   -24.3104 -24.2140 -24.1373 -24.0524 -23.9872 -23.8501 -23.7809 -23.7727
   -23.7458 -23.6556 -11.2315  -8.0450  -4.9431  -3.2986  -0.5119  -0.3133
     1.5085   1.8450

          k = 0.1500 0.4330 0.0000 ( 10953 PWs)   bands (ev):

   -24.3282 -24.2225 -24.1354 -24.0552 -23.9773 -23.8606 -23.7781 -23.7741
   -23.7337 -23.6369 -10.9701  -8.5089  -5.1173  -3.0403  -0.7189  -0.5343
     2.0617   2.2532

          k = 0.1500 0.4907 0.0000 ( 10958 PWs)   bands (ev):

   -24.3405 -24.2286 -24.1339 -24.0573 -23.9688 -23.8695 -23.7761 -23.7754
   -23.7252 -23.6236 -10.7096  -8.9081  -5.2350  -2.7861  -1.0756  -0.5696
     2.4578   2.6299

          k = 0.1500 0.5485 0.0000 ( 10954 PWs)   bands (ev):

   -24.3468 -24.2318 -24.1330 -24.0583 -23.9637 -23.8748 -23.7762 -23.7751
   -23.7209 -23.6167 -10.5179  -9.1702  -5.2942  -2.6014  -1.3127  -0.5919
     2.6162   2.8371

          k = 0.2000 0.3464 0.0000 ( 10953 PWs)   bands (ev):

   -24.3123 -24.2060 -24.1413 -24.0527 -23.9868 -23.8504 -23.7806 -23.7664
   -23.7562 -23.6539 -11.2490  -7.9929  -5.0062  -3.3157  -0.2693  -0.1569
     1.1001   1.8035

          k = 0.2000 0.4041 0.0000 ( 10949 PWs)   bands (ev):

   -24.3327 -24.2085 -24.1425 -24.0561 -23.9757 -23.8621 -23.7774 -23.7674
   -23.7473 -23.6328 -10.9981  -8.4291  -5.2434  -3.0671  -0.6499   0.0499
     1.4774   2.0872

          k = 0.2000 0.4619 0.0000 ( 10975 PWs)   bands (ev):

   -24.3478 -24.2110 -24.1428 -24.0587 -23.9648 -23.8733 -23.7749 -23.7694
   -23.7397 -23.6165 -10.7295  -8.8358  -5.4171  -2.8037  -1.0129   0.0942
     2.0746   2.4111

          k = 0.2000 0.5196 0.0000 ( 10964 PWs)   bands (ev):

   -24.3571 -24.2129 -24.1427 -24.0604 -23.9562 -23.8823 -23.7733 -23.7708
   -23.7349 -23.6063 -10.4802  -9.1704  -5.5223  -2.5623  -1.3163   0.0900
     2.3770   2.7568

          k = 0.2000 0.5774 0.0000 ( 10963 PWs)   bands (ev):

   -24.3603 -24.2135 -24.1426 -24.0609 -23.9526 -23.8859 -23.7727 -23.7714
   -23.7332 -23.6028 -10.3598  -9.3197  -5.5576  -2.4470  -1.4528   0.0848
     2.3483   2.9659

          k = 0.2500 0.4330 0.0000 ( 10961 PWs)   bands (ev):

   -24.3503 -24.2034 -24.1474 -24.0592 -23.9633 -23.8748 -23.7744 -23.7651
   -23.7470 -23.6141 -10.7368  -8.8075  -5.4838  -2.8103  -0.9884   0.5239
     1.6035   2.3836

          k = 0.2500 0.4907 0.0000 ( 10977 PWs)   bands (ev):

   -24.3624 -24.1994 -24.1514 -24.0615 -23.9511 -23.8872 -23.7722 -23.7651
   -23.7453 -23.6008 -10.4635  -9.1614  -5.6493  -2.5444  -1.3105   0.7463
     2.0227   2.2454

          k = 0.2500 0.5485 0.0000 ( 10972 PWs)   bands (ev):

   -24.3686 -24.1971 -24.1536 -24.0627 -23.9422 -23.8963 -23.7711 -23.7656
   -23.7439 -23.5940 -10.2355  -9.4306  -5.7332  -2.3251  -1.5585   0.8002
     2.1693   2.5208

          k = 0.3000 0.5196 0.0000 ( 10971 PWs)   bands (ev):

   -24.3715 -24.1885 -24.1604 -24.0633 -23.9372 -23.9014 -23.7706 -23.7615
   -23.7497 -23.5910 -10.1852  -9.4747  -5.7947  -2.2756  -1.6011   1.2934
     2.0582   2.1070

          k = 0.3000 0.5774 0.0000 ( 10953 PWs)   bands (ev):

   -24.3745 -24.1822 -24.1659 -24.0639 -23.9281 -23.9105 -23.7700 -23.7597
   -23.7518 -23.5877  -9.9920  -9.6794  -5.8441  -2.0908  -1.7930   1.4950
     2.0590   2.1605

     the Fermi energy is    -2.3007 ev

!    total energy              =    -326.39279960 Ry
     estimated scf accuracy    <       0.00000063 Ry
     smearing contrib. (-TS)   =       0.00018020 Ry
     internal energy E=F+TS    =    -326.39297980 Ry

     The total energy is F=E-TS. E is the sum of the following terms:
     one-electron contribution =    -882.82913118 Ry
     hartree contribution      =     448.53404438 Ry
     xc contribution           =     -95.07619676 Ry
     ewald contribution        =     202.97830376 Ry

     convergence has been achieved in   5 iterations

     Writing all to output data dir ../tmp/stanene.save/

     init_run     :     28.10s CPU     12.33s WALL (       1 calls)
     electrons    :    563.85s CPU    235.45s WALL (       1 calls)

     Called by init_run:
     wfcinit      :     24.93s CPU     10.48s WALL (       1 calls)
     potinit      :      0.08s CPU      0.08s WALL (       1 calls)
     hinit0       :      0.46s CPU      0.47s WALL (       1 calls)

     Called by electrons:
     c_bands      :    477.31s CPU    196.06s WALL (       5 calls)
     sum_band     :     78.32s CPU     34.86s WALL (       5 calls)
     v_of_rho     :      0.27s CPU      0.28s WALL (       6 calls)
     newd         :     10.55s CPU      5.50s WALL (       6 calls)
     mix_rho      :      0.03s CPU      0.03s WALL (       5 calls)

     Called by c_bands:
     init_us_2    :      4.81s CPU      1.42s WALL (     484 calls)
     init_us_2:cp :      4.81s CPU      1.42s WALL (     484 calls)
     cegterg      :    467.18s CPU    192.94s WALL (     220 calls)

     Called by *egterg:
     cdiaghg      :      5.00s CPU      1.77s WALL (    1363 calls)
     h_psi        :    361.47s CPU    156.69s WALL (    1407 calls)
     s_psi        :     13.40s CPU      4.56s WALL (    1407 calls)
     g_psi        :      1.15s CPU      0.41s WALL (    1143 calls)

     Called by h_psi:
     h_psi:calbec :    241.30s CPU    116.92s WALL (    1407 calls)
     vloc_psi     :    106.67s CPU     35.16s WALL (    1407 calls)
     add_vuspsi   :     12.63s CPU      4.27s WALL (    1407 calls)

     General routines
     calbec       :    297.76s CPU    144.37s WALL (    1627 calls)
     fft          :      0.38s CPU      0.39s WALL (      66 calls)
     ffts         :      0.03s CPU      0.01s WALL (       5 calls)
     fftw         :    104.87s CPU     34.23s WALL (   31144 calls)

     Parallel routines

     PWSCF        :   9m52.34s CPU   4m 8.06s WALL


   This run was terminated on:  23:50:44  19Jun2024            

=------------------------------------------------------------------------------=
   JOB DONE.
=------------------------------------------------------------------------------=
