### Running on host: handarmsi

     Program PWSCF v.7.2 starts on 20Jun2024 at  0:13:11 

     This program is part of the open-source Quantum ESPRESSO suite
     for quantum simulation of materials; please cite
         "P. Giannozzi et al., J. Phys.:Condens. Matter 21 395502 (2009);
         "P. Giannozzi et al., J. Phys.:Condens. Matter 29 465901 (2017);
         "P. Giannozzi et al., J. Chem. Phys. 152 154105 (2020);
          URL http://www.quantum-espresso.org", 
     in publications or presentations arising from this work. More details at
     http://www.quantum-espresso.org/quote

     Parallel version (MPI), running on     1 processors

     MPI processes distributed on     1 nodes
     5647 MiB available memory on the printing compute node when the environment starts

     Reading input from sn_scf_kpoints-34.in

     Current dimensions of program PWSCF are:
     Max number of different atomic species (ntypx) = 10
     Max number of k-points (npk) =  40000
     Max angular momentum in pseudopotentials (lmaxx) =  4

     Subspace diagonalization in iterative solution of the eigenvalue problem:
     a serial algorithm will be used


     G-vector sticks info
     --------------------
     sticks:   dense  smooth     PW     G-vecs:    dense   smooth      PW
     Sum         859     859    253                87375    87375   13533

     Using Slab Decomposition



     bravais-lattice index     =            4
     lattice parameter (alat)  =       8.8439  a.u.
     unit-cell volume          =    2560.0529 (a.u.)^3
     number of atoms/cell      =            2
     number of atomic types    =            1
     number of electrons       =        28.00
     number of Kohn-Sham states=           18
     kinetic-energy cutoff     =      40.0000  Ry
     charge density cutoff     =     160.0000  Ry
     scf convergence threshold =      1.0E-06
     mixing beta               =       0.7000
     number of iterations used =            8  plain     mixing
     Exchange-correlation= SLA  PW   PBE  PBE
                           (   1   4   3   4   0   0   0)

     celldm(1)=   8.843918  celldm(2)=   0.000000  celldm(3)=   4.273504
     celldm(4)=   0.000000  celldm(5)=   0.000000  celldm(6)=   0.000000

     crystal axes: (cart. coord. in units of alat)
               a(1) = (   1.000000   0.000000   0.000000 )  
               a(2) = (  -0.500000   0.866025   0.000000 )  
               a(3) = (   0.000000   0.000000   4.273504 )  

     reciprocal axes: (cart. coord. in units 2 pi/alat)
               b(1) = (  1.000000  0.577350 -0.000000 )  
               b(2) = (  0.000000  1.154701  0.000000 )  
               b(3) = (  0.000000 -0.000000  0.234000 )  


     PseudoPot. # 1 for Sn read from file:
     ../pseudo/Sn_pbe_v1.uspp.F.UPF
     MD5 check sum: 4cf58ce39ec5d5d420df3dd08604eb00
     Pseudo is Ultrasoft + core correction, Zval = 14.0
     Generated by new atomic code, or converted to UPF format
     Using radial grid of  891 points,  6 beta functions with: 
                l(1) =   0
                l(2) =   0
                l(3) =   1
                l(4) =   1
                l(5) =   2
                l(6) =   2
     Q(r) pseudized with  6 coefficients,  rinner =    1.200   1.200   1.200
                                                       1.200   1.200

     atomic species   valence    mass     pseudopotential
        Sn            14.00   118.71000     Sn( 1.00)

     24 Sym. Ops., with inversion, found



   Cartesian axes

     site n.     atom                  positions (alat units)
         1           Sn  tau(   1) = (   0.0000000   0.5773503   2.1367521  )
         2           Sn  tau(   2) = (   0.5000000   0.2886751   2.1367521  )

     number of k points=   114  Methfessel-Paxton smearing, width (Ry)=  0.0200

     Number of k-points >= 100: set verbosity='high' to print them.

     Dense  grid:    87375 G-vectors     FFT dimensions: (  36,  36, 160)

     Estimated max dynamical RAM per process >     653.69 MB

     Check: negative core charge=   -0.000001

     Initial potential from superposition of free atoms

     starting charge      25.9999, renormalised to      28.0000

     negative rho (up, down):  1.678E-02 0.000E+00
     Starting wfcs are   18 randomized atomic wfcs

     total cpu time spent up to now is       27.7 secs

     Self-consistent Calculation

     iteration #  1     ecut=    40.00 Ry     beta= 0.70
     Davidson diagonalization with overlap
     ethr =  1.00E-02,  avg # of iterations =  8.0

     negative rho (up, down):  1.076E-02 0.000E+00

     total cpu time spent up to now is      181.1 secs

     total energy              =    -325.42609128 Ry
     estimated scf accuracy    <       2.49883693 Ry

     iteration #  2     ecut=    40.00 Ry     beta= 0.70
     Davidson diagonalization with overlap
     ethr =  8.92E-03,  avg # of iterations =  2.1

     negative rho (up, down):  1.277E-02 0.000E+00

     total cpu time spent up to now is      279.2 secs

     total energy              =    -326.33248703 Ry
     estimated scf accuracy    <       0.37350576 Ry

     iteration #  3     ecut=    40.00 Ry     beta= 0.70
     Davidson diagonalization with overlap
     ethr =  1.33E-03,  avg # of iterations =  2.1

     negative rho (up, down):  1.422E-02 0.000E+00

     total cpu time spent up to now is      377.7 secs

     total energy              =    -326.39072996 Ry
     estimated scf accuracy    <       0.00543053 Ry

     iteration #  4     ecut=    40.00 Ry     beta= 0.70
     Davidson diagonalization with overlap
     ethr =  1.94E-05,  avg # of iterations = 10.1

     negative rho (up, down):  1.419E-02 0.000E+00

     total cpu time spent up to now is      546.0 secs

     total energy              =    -326.39266229 Ry
     estimated scf accuracy    <       0.00069482 Ry

     iteration #  5     ecut=    40.00 Ry     beta= 0.70
     Davidson diagonalization with overlap
     c_bands:  1 eigenvalues not converged
     ethr =  2.48E-06,  avg # of iterations =  4.4

     negative rho (up, down):  1.416E-02 0.000E+00

     total cpu time spent up to now is      661.3 secs

     End of self-consistent calculation

     Number of k-points >= 100: set verbosity='high' to print the bands.

     the Fermi energy is    -2.2967 ev

!    total energy              =    -326.39281405 Ry
     estimated scf accuracy    <       0.00000039 Ry
     smearing contrib. (-TS)   =       0.00023807 Ry
     internal energy E=F+TS    =    -326.39305212 Ry

     The total energy is F=E-TS. E is the sum of the following terms:
     one-electron contribution =    -882.82173932 Ry
     hartree contribution      =     448.52569199 Ry
     xc contribution           =     -95.07530855 Ry
     ewald contribution        =     202.97830376 Ry

     convergence has been achieved in   5 iterations

     Writing all to output data dir ../tmp/stanene.save/

     init_run     :     65.85s CPU     27.64s WALL (       1 calls)
     electrons    :   1508.44s CPU    633.58s WALL (       1 calls)

     Called by init_run:
     wfcinit      :     62.95s CPU     25.85s WALL (       1 calls)
     potinit      :      0.10s CPU      0.11s WALL (       1 calls)
     hinit0       :      0.44s CPU      0.46s WALL (       1 calls)

     Called by electrons:
     c_bands      :   1283.49s CPU    533.14s WALL (       5 calls)
     sum_band     :    197.61s CPU     88.13s WALL (       5 calls)
     v_of_rho     :      0.30s CPU      0.32s WALL (       6 calls)
     newd         :     29.19s CPU     13.06s WALL (       6 calls)
     mix_rho      :      0.02s CPU      0.03s WALL (       5 calls)

     Called by c_bands:
     init_us_2    :     11.01s CPU      3.53s WALL (    1254 calls)
     init_us_2:cp :     11.00s CPU      3.52s WALL (    1254 calls)
     cegterg      :   1256.29s CPU    524.78s WALL (     570 calls)

     Called by *egterg:
     cdiaghg      :     13.65s CPU      4.91s WALL (    3625 calls)
     h_psi        :    970.48s CPU    422.25s WALL (    3739 calls)
     s_psi        :     35.56s CPU     11.59s WALL (    3739 calls)
     g_psi        :      2.51s CPU      0.93s WALL (    3055 calls)

     Called by h_psi:
     h_psi:calbec :    672.66s CPU    324.50s WALL (    3739 calls)
     vloc_psi     :    261.03s CPU     85.36s WALL (    3739 calls)
     add_vuspsi   :     34.68s CPU     11.58s WALL (    3739 calls)

     General routines
     calbec       :    822.28s CPU    396.68s WALL (    4309 calls)
     fft          :      0.37s CPU      0.39s WALL (      66 calls)
     ffts         :      0.03s CPU      0.01s WALL (       5 calls)
     fftw         :    252.68s CPU     81.60s WALL (   80802 calls)

     Parallel routines

     PWSCF        :  26m14.56s CPU  11m 1.74s WALL


   This run was terminated on:   0:24:13  20Jun2024            

=------------------------------------------------------------------------------=
   JOB DONE.
=------------------------------------------------------------------------------=
