### Running on host: handarmsi

     Program PWSCF v.7.2 starts on 19Jun2024 at 23:38: 3 

     This program is part of the open-source Quantum ESPRESSO suite
     for quantum simulation of materials; please cite
         "P. Giannozzi et al., J. Phys.:Condens. Matter 21 395502 (2009);
         "P. Giannozzi et al., J. Phys.:Condens. Matter 29 465901 (2017);
         "P. Giannozzi et al., J. Chem. Phys. 152 154105 (2020);
          URL http://www.quantum-espresso.org", 
     in publications or presentations arising from this work. More details at
     http://www.quantum-espresso.org/quote

     Parallel version (MPI), running on     1 processors

     MPI processes distributed on     1 nodes
     5980 MiB available memory on the printing compute node when the environment starts

     Reading input from sn_scf_kpoints-12.in

     Current dimensions of program PWSCF are:
     Max number of different atomic species (ntypx) = 10
     Max number of k-points (npk) =  40000
     Max angular momentum in pseudopotentials (lmaxx) =  4

     Subspace diagonalization in iterative solution of the eigenvalue problem:
     a serial algorithm will be used


     G-vector sticks info
     --------------------
     sticks:   dense  smooth     PW     G-vecs:    dense   smooth      PW
     Sum         859     859    253                87375    87375   13629

     Using Slab Decomposition



     bravais-lattice index     =            4
     lattice parameter (alat)  =       8.8439  a.u.
     unit-cell volume          =    2560.0529 (a.u.)^3
     number of atoms/cell      =            2
     number of atomic types    =            1
     number of electrons       =        28.00
     number of Kohn-Sham states=           18
     kinetic-energy cutoff     =      40.0000  Ry
     charge density cutoff     =     160.0000  Ry
     scf convergence threshold =      1.0E-06
     mixing beta               =       0.7000
     number of iterations used =            8  plain     mixing
     Exchange-correlation= SLA  PW   PBE  PBE
                           (   1   4   3   4   0   0   0)

     celldm(1)=   8.843918  celldm(2)=   0.000000  celldm(3)=   4.273504
     celldm(4)=   0.000000  celldm(5)=   0.000000  celldm(6)=   0.000000

     crystal axes: (cart. coord. in units of alat)
               a(1) = (   1.000000   0.000000   0.000000 )  
               a(2) = (  -0.500000   0.866025   0.000000 )  
               a(3) = (   0.000000   0.000000   4.273504 )  

     reciprocal axes: (cart. coord. in units 2 pi/alat)
               b(1) = (  1.000000  0.577350 -0.000000 )  
               b(2) = (  0.000000  1.154701  0.000000 )  
               b(3) = (  0.000000 -0.000000  0.234000 )  


     PseudoPot. # 1 for Sn read from file:
     ../pseudo/Sn_pbe_v1.uspp.F.UPF
     MD5 check sum: 4cf58ce39ec5d5d420df3dd08604eb00
     Pseudo is Ultrasoft + core correction, Zval = 14.0
     Generated by new atomic code, or converted to UPF format
     Using radial grid of  891 points,  6 beta functions with: 
                l(1) =   0
                l(2) =   0
                l(3) =   1
                l(4) =   1
                l(5) =   2
                l(6) =   2
     Q(r) pseudized with  6 coefficients,  rinner =    1.200   1.200   1.200
                                                       1.200   1.200

     atomic species   valence    mass     pseudopotential
        Sn            14.00   118.71000     Sn( 1.00)

     24 Sym. Ops., with inversion, found



   Cartesian axes

     site n.     atom                  positions (alat units)
         1           Sn  tau(   1) = (   0.0000000   0.5773503   2.1367521  )
         2           Sn  tau(   2) = (   0.5000000   0.2886751   2.1367521  )

     number of k points=    19  Methfessel-Paxton smearing, width (Ry)=  0.0200
                       cart. coord. in units 2pi/alat
        k(    1) = (   0.0000000   0.0000000   0.0000000), wk =   0.0138889
        k(    2) = (   0.0000000   0.0962250   0.0000000), wk =   0.0833333
        k(    3) = (   0.0000000   0.1924501   0.0000000), wk =   0.0833333
        k(    4) = (   0.0000000   0.2886751   0.0000000), wk =   0.0833333
        k(    5) = (   0.0000000   0.3849002   0.0000000), wk =   0.0833333
        k(    6) = (   0.0000000   0.4811252   0.0000000), wk =   0.0833333
        k(    7) = (   0.0000000  -0.5773503   0.0000000), wk =   0.0416667
        k(    8) = (   0.0833333   0.1443376   0.0000000), wk =   0.0833333
        k(    9) = (   0.0833333   0.2405626   0.0000000), wk =   0.1666667
        k(   10) = (   0.0833333   0.3367877   0.0000000), wk =   0.1666667
        k(   11) = (   0.0833333   0.4330127   0.0000000), wk =   0.1666667
        k(   12) = (   0.0833333   0.5292377   0.0000000), wk =   0.1666667
        k(   13) = (   0.1666667   0.2886751   0.0000000), wk =   0.0833333
        k(   14) = (   0.1666667   0.3849002   0.0000000), wk =   0.1666667
        k(   15) = (   0.1666667   0.4811252   0.0000000), wk =   0.1666667
        k(   16) = (   0.1666667   0.5773503   0.0000000), wk =   0.0833333
        k(   17) = (   0.2500000   0.4330127   0.0000000), wk =   0.0833333
        k(   18) = (   0.2500000   0.5292377   0.0000000), wk =   0.1666667
        k(   19) = (   0.3333333   0.5773503   0.0000000), wk =   0.0277778

     Dense  grid:    87375 G-vectors     FFT dimensions: (  36,  36, 160)

     Estimated max dynamical RAM per process >     368.32 MB

     Check: negative core charge=   -0.000001

     Initial potential from superposition of free atoms

     starting charge      25.9999, renormalised to      28.0000

     negative rho (up, down):  1.678E-02 0.000E+00
     Starting wfcs are   18 randomized atomic wfcs

     total cpu time spent up to now is        7.1 secs

     Self-consistent Calculation

     iteration #  1     ecut=    40.00 Ry     beta= 0.70
     Davidson diagonalization with overlap
     ethr =  1.00E-02,  avg # of iterations =  8.0

     negative rho (up, down):  1.144E-02 0.000E+00

     total cpu time spent up to now is       31.2 secs

     total energy              =    -325.42568046 Ry
     estimated scf accuracy    <       2.49973529 Ry

     iteration #  2     ecut=    40.00 Ry     beta= 0.70
     Davidson diagonalization with overlap
     ethr =  8.93E-03,  avg # of iterations =  2.1

     negative rho (up, down):  1.312E-02 0.000E+00

     total cpu time spent up to now is       50.3 secs

     total energy              =    -326.33153844 Ry
     estimated scf accuracy    <       0.37486902 Ry

     iteration #  3     ecut=    40.00 Ry     beta= 0.70
     Davidson diagonalization with overlap
     ethr =  1.34E-03,  avg # of iterations =  2.0

     negative rho (up, down):  1.425E-02 0.000E+00

     total cpu time spent up to now is       69.9 secs

     total energy              =    -326.39056541 Ry
     estimated scf accuracy    <       0.00557037 Ry

     iteration #  4     ecut=    40.00 Ry     beta= 0.70
     Davidson diagonalization with overlap
     ethr =  1.99E-05,  avg # of iterations = 10.5

     negative rho (up, down):  1.417E-02 0.000E+00

     total cpu time spent up to now is       98.3 secs

     total energy              =    -326.39253439 Ry
     estimated scf accuracy    <       0.00075121 Ry

     iteration #  5     ecut=    40.00 Ry     beta= 0.70
     Davidson diagonalization with overlap
     ethr =  2.68E-06,  avg # of iterations =  3.7

     negative rho (up, down):  1.417E-02 0.000E+00

     total cpu time spent up to now is      115.6 secs

     total energy              =    -326.39271889 Ry
     estimated scf accuracy    <       0.00000399 Ry

     iteration #  6     ecut=    40.00 Ry     beta= 0.70
     Davidson diagonalization with overlap
     ethr =  1.43E-08,  avg # of iterations =  2.7

     negative rho (up, down):  1.417E-02 0.000E+00

     total cpu time spent up to now is      133.0 secs

     End of self-consistent calculation

          k = 0.0000 0.0000 0.0000 ( 10895 PWs)   bands (ev):

   -24.1178 -24.1001 -24.1001 -24.0057 -24.0057 -23.8366 -23.8366 -23.7736
   -23.7736 -23.7100 -12.2235  -4.3139  -3.6935  -3.3574  -3.3574   0.6659
     0.6659   0.6864

          k = 0.0000 0.0962 0.0000 ( 10887 PWs)   bands (ev):

   -24.1250 -24.1173 -24.1083 -24.0072 -24.0030 -23.8208 -23.8175 -23.7767
   -23.7721 -23.7092 -12.1642  -4.7160  -4.2524  -3.4852  -2.4191   0.5950
     0.7938   0.9135

          k = 0.0000 0.1925 0.0000 ( 10909 PWs)   bands (ev):

   -24.1601 -24.1559 -24.1078 -24.0112 -23.9952 -23.7883 -23.7856 -23.7741
   -23.7681 -23.7041 -11.9875  -5.8665  -4.0702  -3.7851  -1.6829   0.7761
     1.0306   1.3989

          k = 0.0000 0.2887 0.0000 ( 10909 PWs)   bands (ev):

   -24.2016 -24.1974 -24.1029 -24.0165 -23.9833 -23.7990 -23.7644 -23.7628
   -23.7258 -23.6871 -11.6980  -6.9488  -4.1197  -3.7749  -1.5096   0.5970
     1.2347   1.7249

          k = 0.0000 0.3849 0.0000 ( 10938 PWs)   bands (ev):

   -24.2368 -24.2318 -24.0976 -24.0216 -23.9695 -23.8144 -23.7578 -23.7570
   -23.6847 -23.6605 -11.3105  -7.9190  -4.4003  -3.3858  -1.6044  -0.2064
     1.6936   2.3449

          k = 0.0000 0.4811 0.0000 ( 10930 PWs)   bands (ev):

   -24.2598 -24.2540 -24.0935 -24.0252 -23.9573 -23.8276 -23.7564 -23.7542
   -23.6575 -23.6390 -10.8797  -8.7056  -4.5823  -2.9619  -1.7134  -0.8956
     2.2534   2.8664

          k = 0.0000-0.5774 0.0000 ( 10920 PWs)   bands (ev):

   -24.2677 -24.2616 -24.0920 -24.0265 -23.9522 -23.8331 -23.7568 -23.7529
   -23.6481 -23.6311 -10.6345  -9.0704  -4.6450  -2.7253  -1.7556  -1.2230
     2.8358   3.0243

          k = 0.0833 0.1443 0.0000 ( 10893 PWs)   bands (ev):

   -24.1575 -24.1318 -24.1131 -24.0101 -23.9975 -23.7966 -23.7877 -23.7829
   -23.7692 -23.7060 -12.0462  -5.5530  -4.1305  -3.7427  -1.7410   0.5543
     0.9242   1.4677

          k = 0.0833 0.2406 0.0000 ( 10908 PWs)   bands (ev):

   -24.2036 -24.1615 -24.1099 -24.0152 -23.9871 -23.7946 -23.7672 -23.7642
   -23.7500 -23.6911 -11.8126  -6.5523  -4.1303  -3.8912  -1.2168   0.8106
     0.9025   1.1888

          k = 0.0833 0.3368 0.0000 ( 10927 PWs)   bands (ev):

   -24.2463 -24.1922 -24.1046 -24.0208 -23.9732 -23.8100 -23.7586 -23.7545
   -23.7154 -23.6593 -11.4713  -7.5237  -4.4893  -3.5462  -1.1499   0.1266
     1.4660   1.7714

          k = 0.0833 0.4330 0.0000 ( 10949 PWs)   bands (ev):

   -24.2780 -24.2159 -24.0997 -24.0255 -23.9586 -23.8258 -23.7540 -23.7533
   -23.6879 -23.6280 -11.0491  -8.3857  -4.7510  -3.1267  -1.2472  -0.6134
     2.0028   2.6089

          k = 0.0833 0.5292 0.0000 ( 10921 PWs)   bands (ev):

   -24.2948 -24.2285 -24.0968 -24.0282 -23.9484 -23.8367 -23.7543 -23.7514
   -23.6729 -23.6100 -10.6573  -9.0027  -4.8871  -2.7454  -1.3212  -1.1637
     2.6148   2.9806

          k = 0.1667 0.2887 0.0000 ( 10925 PWs)   bands (ev):

   -24.2504 -24.1708 -24.1128 -24.0211 -23.9736 -23.8093 -23.7585 -23.7419
   -23.7412 -23.6567 -11.5256  -7.3526  -4.6202  -3.6005  -0.5631   0.2658
     0.8520   1.4827

          k = 0.1667 0.3849 0.0000 ( 10945 PWs)   bands (ev):

   -24.2891 -24.1834 -24.1119 -24.0270 -23.9568 -23.8272 -23.7528 -23.7436
   -23.7180 -23.6184 -11.1393  -8.1547  -5.0305  -3.2145  -0.4143  -0.3078
     1.5069   1.9183

          k = 0.1667 0.4811 0.0000 ( 10952 PWs)   bands (ev):

   -24.3143 -24.1934 -24.1096 -24.0312 -23.9406 -23.8441 -23.7488 -23.7466
   -23.7021 -23.5912 -10.6993  -8.8627  -5.2881  -2.7826  -1.0416  -0.3324
     2.4221   2.5617

          k = 0.1667 0.5774 0.0000 ( 10957 PWs)   bands (ev):

   -24.3230 -24.1971 -24.1085 -24.0327 -23.9330 -23.8520 -23.7479 -23.7473
   -23.6965 -23.5816 -10.4314  -9.2229  -5.3751  -2.5245  -1.3680  -0.3586
     2.5238   2.9827

          k = 0.2500 0.4330 0.0000 ( 10961 PWs)   bands (ev):

   -24.3211 -24.1748 -24.1200 -24.0326 -23.9366 -23.8481 -23.7475 -23.7381
   -23.7187 -23.5845 -10.7188  -8.7894  -5.4660  -2.8000  -0.9780   0.5415
     1.6202   2.3838

          k = 0.2500 0.5292 0.0000 ( 10982 PWs)   bands (ev):

   -24.3380 -24.1692 -24.1255 -24.0358 -23.9178 -23.8672 -23.7445 -23.7383
   -23.7163 -23.5659 -10.2801  -9.3406  -5.6968  -2.3748  -1.4817   0.8086
     2.1928   2.3931

          k = 0.3333 0.5774 0.0000 ( 10977 PWs)   bands (ev):

   -24.3463 -24.1459 -24.1459 -24.0375 -23.8925 -23.8925 -23.7429 -23.7284
   -23.7284 -23.5569  -9.8182  -9.8182  -5.8451  -1.9316  -1.9316   1.8790
     1.8791   2.0468

     the Fermi energy is    -2.3216 ev

!    total energy              =    -326.39272009 Ry
     estimated scf accuracy    <       0.00000011 Ry
     smearing contrib. (-TS)   =      -0.00003732 Ry
     internal energy E=F+TS    =    -326.39268277 Ry

     The total energy is F=E-TS. E is the sum of the following terms:
     one-electron contribution =    -882.86049743 Ry
     hartree contribution      =     448.56678439 Ry
     xc contribution           =     -95.07727349 Ry
     ewald contribution        =     202.97830376 Ry

     convergence has been achieved in   6 iterations

     Writing all to output data dir ../tmp/stanene.save/

     init_run     :     14.61s CPU      7.01s WALL (       1 calls)
     electrons    :    298.61s CPU    125.93s WALL (       1 calls)

     Called by init_run:
     wfcinit      :     11.97s CPU      5.33s WALL (       1 calls)
     potinit      :      0.07s CPU      0.08s WALL (       1 calls)
     hinit0       :      0.48s CPU      0.48s WALL (       1 calls)

     Called by electrons:
     c_bands      :    248.83s CPU    102.93s WALL (       6 calls)
     sum_band     :     35.43s CPU     15.68s WALL (       6 calls)
     v_of_rho     :      0.33s CPU      0.35s WALL (       7 calls)
     newd         :     16.00s CPU      8.02s WALL (       7 calls)
     mix_rho      :      0.03s CPU      0.04s WALL (       6 calls)

     Called by c_bands:
     init_us_2    :      2.02s CPU      0.63s WALL (     247 calls)
     init_us_2:cp :      2.02s CPU      0.63s WALL (     247 calls)
     cegterg      :    243.69s CPU    101.33s WALL (     114 calls)

     Called by *egterg:
     cdiaghg      :      3.26s CPU      1.15s WALL (     664 calls)
     h_psi        :    185.45s CPU     81.13s WALL (     683 calls)
     s_psi        :      6.92s CPU      2.27s WALL (     683 calls)
     g_psi        :      0.40s CPU      0.16s WALL (     550 calls)

     Called by h_psi:
     h_psi:calbec :    127.84s CPU     62.05s WALL (     683 calls)
     vloc_psi     :     50.33s CPU     16.75s WALL (     683 calls)
     add_vuspsi   :      7.01s CPU      2.21s WALL (     683 calls)

     General routines
     calbec       :    151.91s CPU     73.91s WALL (     797 calls)
     fft          :      0.41s CPU      0.42s WALL (      77 calls)
     ffts         :      0.02s CPU      0.01s WALL (       6 calls)
     fftw         :     48.56s CPU     15.93s WALL (   15678 calls)

     Parallel routines

     PWSCF        :   5m13.47s CPU   2m13.10s WALL


   This run was terminated on:  23:40:17  19Jun2024            

=------------------------------------------------------------------------------=
   JOB DONE.
=------------------------------------------------------------------------------=
