### Running on host: handarmsi

     Program PWSCF v.7.2 starts on 19Jun2024 at 23:40:17 

     This program is part of the open-source Quantum ESPRESSO suite
     for quantum simulation of materials; please cite
         "P. Giannozzi et al., J. Phys.:Condens. Matter 21 395502 (2009);
         "P. Giannozzi et al., J. Phys.:Condens. Matter 29 465901 (2017);
         "P. Giannozzi et al., J. Chem. Phys. 152 154105 (2020);
          URL http://www.quantum-espresso.org", 
     in publications or presentations arising from this work. More details at
     http://www.quantum-espresso.org/quote

     Parallel version (MPI), running on     1 processors

     MPI processes distributed on     1 nodes
     5959 MiB available memory on the printing compute node when the environment starts

     Reading input from sn_scf_kpoints-14.in

     Current dimensions of program PWSCF are:
     Max number of different atomic species (ntypx) = 10
     Max number of k-points (npk) =  40000
     Max angular momentum in pseudopotentials (lmaxx) =  4

     Subspace diagonalization in iterative solution of the eigenvalue problem:
     a serial algorithm will be used


     G-vector sticks info
     --------------------
     sticks:   dense  smooth     PW     G-vecs:    dense   smooth      PW
     Sum         859     859    253                87375    87375   13533

     Using Slab Decomposition



     bravais-lattice index     =            4
     lattice parameter (alat)  =       8.8439  a.u.
     unit-cell volume          =    2560.0529 (a.u.)^3
     number of atoms/cell      =            2
     number of atomic types    =            1
     number of electrons       =        28.00
     number of Kohn-Sham states=           18
     kinetic-energy cutoff     =      40.0000  Ry
     charge density cutoff     =     160.0000  Ry
     scf convergence threshold =      1.0E-06
     mixing beta               =       0.7000
     number of iterations used =            8  plain     mixing
     Exchange-correlation= SLA  PW   PBE  PBE
                           (   1   4   3   4   0   0   0)

     celldm(1)=   8.843918  celldm(2)=   0.000000  celldm(3)=   4.273504
     celldm(4)=   0.000000  celldm(5)=   0.000000  celldm(6)=   0.000000

     crystal axes: (cart. coord. in units of alat)
               a(1) = (   1.000000   0.000000   0.000000 )  
               a(2) = (  -0.500000   0.866025   0.000000 )  
               a(3) = (   0.000000   0.000000   4.273504 )  

     reciprocal axes: (cart. coord. in units 2 pi/alat)
               b(1) = (  1.000000  0.577350 -0.000000 )  
               b(2) = (  0.000000  1.154701  0.000000 )  
               b(3) = (  0.000000 -0.000000  0.234000 )  


     PseudoPot. # 1 for Sn read from file:
     ../pseudo/Sn_pbe_v1.uspp.F.UPF
     MD5 check sum: 4cf58ce39ec5d5d420df3dd08604eb00
     Pseudo is Ultrasoft + core correction, Zval = 14.0
     Generated by new atomic code, or converted to UPF format
     Using radial grid of  891 points,  6 beta functions with: 
                l(1) =   0
                l(2) =   0
                l(3) =   1
                l(4) =   1
                l(5) =   2
                l(6) =   2
     Q(r) pseudized with  6 coefficients,  rinner =    1.200   1.200   1.200
                                                       1.200   1.200

     atomic species   valence    mass     pseudopotential
        Sn            14.00   118.71000     Sn( 1.00)

     24 Sym. Ops., with inversion, found



   Cartesian axes

     site n.     atom                  positions (alat units)
         1           Sn  tau(   1) = (   0.0000000   0.5773503   2.1367521  )
         2           Sn  tau(   2) = (   0.5000000   0.2886751   2.1367521  )

     number of k points=    24  Methfessel-Paxton smearing, width (Ry)=  0.0200
                       cart. coord. in units 2pi/alat
        k(    1) = (   0.0000000   0.0000000   0.0000000), wk =   0.0102041
        k(    2) = (   0.0000000   0.0824786   0.0000000), wk =   0.0612245
        k(    3) = (   0.0000000   0.1649572   0.0000000), wk =   0.0612245
        k(    4) = (   0.0000000   0.2474358   0.0000000), wk =   0.0612245
        k(    5) = (   0.0000000   0.3299144   0.0000000), wk =   0.0612245
        k(    6) = (   0.0000000   0.4123930   0.0000000), wk =   0.0612245
        k(    7) = (   0.0000000   0.4948717   0.0000000), wk =   0.0612245
        k(    8) = (   0.0000000  -0.5773503   0.0000000), wk =   0.0306122
        k(    9) = (   0.0714286   0.1237179   0.0000000), wk =   0.0612245
        k(   10) = (   0.0714286   0.2061965   0.0000000), wk =   0.1224490
        k(   11) = (   0.0714286   0.2886751   0.0000000), wk =   0.1224490
        k(   12) = (   0.0714286   0.3711537   0.0000000), wk =   0.1224490
        k(   13) = (   0.0714286   0.4536324   0.0000000), wk =   0.1224490
        k(   14) = (   0.0714286   0.5361110   0.0000000), wk =   0.1224490
        k(   15) = (   0.1428571   0.2474358   0.0000000), wk =   0.0612245
        k(   16) = (   0.1428571   0.3299144   0.0000000), wk =   0.1224490
        k(   17) = (   0.1428571   0.4123930   0.0000000), wk =   0.1224490
        k(   18) = (   0.1428571   0.4948717   0.0000000), wk =   0.1224490
        k(   19) = (   0.1428571   0.5773503   0.0000000), wk =   0.0612245
        k(   20) = (   0.2142857   0.3711537   0.0000000), wk =   0.0612245
        k(   21) = (   0.2142857   0.4536324   0.0000000), wk =   0.1224490
        k(   22) = (   0.2142857   0.5361110   0.0000000), wk =   0.1224490
        k(   23) = (   0.2857143   0.4948717   0.0000000), wk =   0.0612245
        k(   24) = (   0.2857143   0.5773503   0.0000000), wk =   0.0612245

     Dense  grid:    87375 G-vectors     FFT dimensions: (  36,  36, 160)

     Estimated max dynamical RAM per process >     383.34 MB

     Check: negative core charge=   -0.000001

     Initial potential from superposition of free atoms

     starting charge      25.9999, renormalised to      28.0000

     negative rho (up, down):  1.678E-02 0.000E+00
     Starting wfcs are   18 randomized atomic wfcs

     total cpu time spent up to now is        7.6 secs

     Self-consistent Calculation

     iteration #  1     ecut=    40.00 Ry     beta= 0.70
     Davidson diagonalization with overlap
     ethr =  1.00E-02,  avg # of iterations =  8.3

     negative rho (up, down):  1.192E-02 0.000E+00

     total cpu time spent up to now is       40.1 secs

     total energy              =    -325.42555625 Ry
     estimated scf accuracy    <       2.50017934 Ry

     iteration #  2     ecut=    40.00 Ry     beta= 0.70
     Davidson diagonalization with overlap
     ethr =  8.93E-03,  avg # of iterations =  2.0

     negative rho (up, down):  1.336E-02 0.000E+00

     total cpu time spent up to now is       63.1 secs

     total energy              =    -326.33255957 Ry
     estimated scf accuracy    <       0.37360944 Ry

     iteration #  3     ecut=    40.00 Ry     beta= 0.70
     Davidson diagonalization with overlap
     ethr =  1.33E-03,  avg # of iterations =  2.1

     negative rho (up, down):  1.429E-02 0.000E+00

     total cpu time spent up to now is       84.4 secs

     total energy              =    -326.39083847 Ry
     estimated scf accuracy    <       0.00545424 Ry

     iteration #  4     ecut=    40.00 Ry     beta= 0.70
     Davidson diagonalization with overlap
     ethr =  1.95E-05,  avg # of iterations = 10.1

     negative rho (up, down):  1.421E-02 0.000E+00

     total cpu time spent up to now is      126.5 secs

     total energy              =    -326.39279268 Ry
     estimated scf accuracy    <       0.00062955 Ry

     iteration #  5     ecut=    40.00 Ry     beta= 0.70
     Davidson diagonalization with overlap
     ethr =  2.25E-06,  avg # of iterations =  4.8

     negative rho (up, down):  1.416E-02 0.000E+00

     total cpu time spent up to now is      154.6 secs

     total energy              =    -326.39290412 Ry
     estimated scf accuracy    <       0.00000479 Ry

     iteration #  6     ecut=    40.00 Ry     beta= 0.70
     Davidson diagonalization with overlap
     ethr =  1.71E-08,  avg # of iterations =  3.3

     negative rho (up, down):  1.417E-02 0.000E+00

     total cpu time spent up to now is      180.3 secs

     total energy              =    -326.39290702 Ry
     estimated scf accuracy    <       0.00000207 Ry

     iteration #  7     ecut=    40.00 Ry     beta= 0.70
     Davidson diagonalization with overlap
     ethr =  7.41E-09,  avg # of iterations =  2.0

     negative rho (up, down):  1.417E-02 0.000E+00

     total cpu time spent up to now is      201.1 secs

     End of self-consistent calculation

          k = 0.0000 0.0000 0.0000 ( 10895 PWs)   bands (ev):

   -24.1341 -24.1188 -24.1188 -24.0223 -24.0223 -23.8553 -23.8553 -23.7903
   -23.7903 -23.7261 -12.2353  -4.3206  -3.7050  -3.3702  -3.3702   0.6543
     0.6543   0.6863

          k = 0.0000 0.0825 0.0000 ( 10887 PWs)   bands (ev):

   -24.1390 -24.1317 -24.1254 -24.0234 -24.0203 -23.8433 -23.8410 -23.7926
   -23.7892 -23.7256 -12.1918  -4.5615  -4.2754  -3.4658  -2.5728   0.5914
     0.7702   0.8379

          k = 0.0000 0.1650 0.0000 ( 10909 PWs)   bands (ev):

   -24.1663 -24.1626 -24.1258 -24.0265 -24.0145 -23.8162 -23.8064 -23.7993
   -23.7862 -23.7228 -12.0617  -5.5548  -4.1410  -3.7032  -1.8477   0.6658
     0.9391   1.3386

          k = 0.0000 0.2474 0.0000 ( 10911 PWs)   bands (ev):

   -24.2022 -24.1987 -24.1221 -24.0308 -24.0054 -23.8096 -23.7903 -23.7819
   -23.7649 -23.7131 -11.8472  -6.5083  -3.9916  -3.9212  -1.5388   0.9404
     1.0450   1.3288

          k = 0.0000 0.3299 0.0000 ( 10909 PWs)   bands (ev):

   -24.2361 -24.2320 -24.1175 -24.0354 -23.9941 -23.8223 -23.7773 -23.7769
   -23.7256 -23.6935 -11.5542  -7.3932  -4.2624  -3.6245  -1.5492   0.2399
     1.4210   2.0887

          k = 0.0000 0.4124 0.0000 ( 10942 PWs)   bands (ev):

   -24.2630 -24.2581 -24.1131 -24.0395 -23.9822 -23.8353 -23.7733 -23.7733
   -23.6941 -23.6712 -11.1991  -8.1797  -4.4761  -3.2703  -1.6506  -0.4280
     1.8422   2.4864

          k = 0.0000 0.4949 0.0000 ( 10938 PWs)   bands (ev):

   -24.2801 -24.2746 -24.1100 -24.0422 -23.9727 -23.8457 -23.7731 -23.7706
   -23.6738 -23.6550 -10.8357  -8.8052  -4.6113  -2.9144  -1.7353  -0.9806
     2.3417   2.9453

          k = 0.0000-0.5774 0.0000 ( 10920 PWs)   bands (ev):

   -24.2860 -24.2803 -24.1089 -24.0431 -23.9689 -23.8498 -23.7733 -23.7696
   -23.6669 -23.6492 -10.6465  -9.0824  -4.6574  -2.7323  -1.7665  -1.2296
     2.8351   3.0241

          k = 0.0714 0.1237 0.0000 ( 10899 PWs)   bands (ev):

   -24.1636 -24.1436 -24.1300 -24.0256 -24.0163 -23.8239 -23.8171 -23.7972
   -23.7871 -23.7239 -12.1049  -5.2850  -4.1856  -3.6583  -1.9652   0.5460
     0.8712   1.2401

          k = 0.0714 0.2062 0.0000 ( 10893 PWs)   bands (ev):

   -24.2019 -24.1693 -24.1276 -24.0296 -24.0085 -23.8060 -23.7968 -23.7832
   -23.7826 -23.7164 -11.9324  -6.1614  -4.0083  -3.9680  -1.4209   0.6763
     1.0668   1.1931

          k = 0.0714 0.2887 0.0000 ( 10902 PWs)   bands (ev):

   -24.2406 -24.1983 -24.1232 -24.0343 -23.9978 -23.8180 -23.7785 -23.7776
   -23.7491 -23.6966 -11.6779  -7.0326  -4.2864  -3.7492  -1.2409   0.5313
     1.1831   1.4243

          k = 0.0714 0.3712 0.0000 ( 10941 PWs)   bands (ev):

   -24.2736 -24.2238 -24.1185 -24.0389 -23.9854 -23.8316 -23.7740 -23.7714
   -23.7199 -23.6688 -11.3506  -7.8444  -4.5550  -3.4204  -1.2913  -0.1402
     1.6478   2.2298

          k = 0.0714 0.4536 0.0000 ( 10947 PWs)   bands (ev):

   -24.2972 -24.2424 -24.1146 -24.0425 -23.9736 -23.8443 -23.7710 -23.7705
   -23.6983 -23.6450 -10.9789  -8.5480  -4.7453  -3.0530  -1.3826  -0.7525
     2.1145   2.7115

          k = 0.0714 0.5361 0.0000 ( 10921 PWs)   bands (ev):

   -24.3095 -24.2521 -24.1124 -24.0444 -23.9660 -23.8525 -23.7715 -23.7685
   -23.6868 -23.6320 -10.6638  -9.0315  -4.8433  -2.7474  -1.4397  -1.1851
     2.6489   3.0416

          k = 0.1429 0.2474 0.0000 ( 10919 PWs)   bands (ev):

   -24.2428 -24.1809 -24.1294 -24.0343 -23.9986 -23.8169 -23.7786 -23.7729
   -23.7647 -23.6960 -11.7193  -6.8840  -4.3635  -3.7911  -0.8785   0.6470
     0.7005   1.2862

          k = 0.1429 0.3299 0.0000 ( 10926 PWs)   bands (ev):

   -24.2803 -24.1966 -24.1279 -24.0394 -23.9857 -23.8309 -23.7736 -23.7632
   -23.7457 -23.6641 -11.4277  -7.6251  -4.7358  -3.4970  -0.6023   0.0428
     1.1390   1.6100

          k = 0.1429 0.4124 0.0000 ( 10942 PWs)   bands (ev):

   -24.3098 -24.2111 -24.1250 -24.0440 -23.9716 -23.8459 -23.7692 -23.7642
   -23.7256 -23.6343 -11.0719  -8.3263  -5.0207  -3.1432  -0.6015  -0.5595
     1.9099   2.1048

          k = 0.1429 0.4949 0.0000 ( 10959 PWs)   bands (ev):

   -24.3285 -24.2210 -24.1224 -24.0470 -23.9595 -23.8587 -23.7662 -23.7661
   -23.7123 -23.6142 -10.7000  -8.9143  -5.1964  -2.7795  -1.0828  -0.6559
     2.4715   2.6640

          k = 0.1429 0.5774 0.0000 ( 10949 PWs)   bands (ev):

   -24.3349 -24.2244 -24.1214 -24.0481 -23.9543 -23.8641 -23.7669 -23.7652
   -23.7077 -23.6071 -10.4974  -9.1905  -5.2555  -2.5845  -1.3326  -0.6800
     2.6574   2.9510

          k = 0.2143 0.3712 0.0000 ( 10955 PWs)   bands (ev):

   -24.3141 -24.1961 -24.1323 -24.0447 -23.9704 -23.8470 -23.7685 -23.7558
   -23.7416 -23.6304 -11.1041  -8.2343  -5.1488  -3.1743  -0.4807   0.0361
     1.2393   1.9572

          k = 0.2143 0.4536 0.0000 ( 10973 PWs)   bands (ev):

   -24.3384 -24.1970 -24.1347 -24.0489 -23.9540 -23.8640 -23.7645 -23.7574
   -23.7325 -23.6045 -10.7270  -8.8162  -5.4436  -2.8035  -0.9976   0.2768
     1.8843   2.3963

          k = 0.2143 0.5361 0.0000 ( 10966 PWs)   bands (ev):

   -24.3510 -24.1979 -24.1354 -24.0512 -23.9414 -23.8770 -23.7623 -23.7594
   -23.7268 -23.5906 -10.3786  -9.2718  -5.5942  -2.4663  -1.4120   0.2953
     2.3038   2.7492

          k = 0.2857 0.4949 0.0000 ( 10963 PWs)   bands (ev):

   -24.3566 -24.1833 -24.1456 -24.0524 -23.9347 -23.8836 -23.7612 -23.7528
   -23.7375 -23.5848 -10.3366  -9.2933  -5.7225  -2.4237  -1.4345   1.0692
     1.9699   2.1726

          k = 0.2857 0.5774 0.0000 ( 10953 PWs)   bands (ev):

   -24.3628 -24.1757 -24.1522 -24.0537 -23.9217 -23.8967 -23.7600 -23.7511
   -23.7394 -23.5779 -10.0477  -9.6111  -5.8187  -2.1465  -1.7305   1.3133
     2.0807   2.2964

     the Fermi energy is    -2.3080 ev

!    total energy              =    -326.39290722 Ry
     estimated scf accuracy    <       0.00000010 Ry
     smearing contrib. (-TS)   =       0.00039962 Ry
     internal energy E=F+TS    =    -326.39330684 Ry

     The total energy is F=E-TS. E is the sum of the following terms:
     one-electron contribution =    -882.84441580 Ry
     hartree contribution      =     448.55006457 Ry
     xc contribution           =     -95.07725937 Ry
     ewald contribution        =     202.97830376 Ry

     convergence has been achieved in   7 iterations

     Writing all to output data dir ../tmp/stanene.save/

     init_run     :     16.50s CPU      7.50s WALL (       1 calls)
     electrons    :    458.05s CPU    193.52s WALL (       1 calls)

     Called by init_run:
     wfcinit      :     14.23s CPU      5.86s WALL (       1 calls)
     potinit      :      0.08s CPU      0.08s WALL (       1 calls)
     hinit0       :      0.47s CPU      0.47s WALL (       1 calls)

     Called by electrons:
     c_bands      :    381.46s CPU    158.75s WALL (       7 calls)
     sum_band     :     58.59s CPU     26.19s WALL (       7 calls)
     v_of_rho     :      0.36s CPU      0.40s WALL (       8 calls)
     newd         :     19.29s CPU      9.20s WALL (       8 calls)
     mix_rho      :      0.05s CPU      0.05s WALL (       7 calls)

     Called by c_bands:
     init_us_2    :      3.03s CPU      0.96s WALL (     360 calls)
     init_us_2:cp :      3.02s CPU      0.96s WALL (     360 calls)
     cegterg      :    373.57s CPU    156.27s WALL (     168 calls)

     Called by *egterg:
     cdiaghg      :      3.82s CPU      1.37s WALL (     951 calls)
     h_psi        :    286.00s CPU    124.95s WALL (     975 calls)
     s_psi        :     10.51s CPU      3.38s WALL (     975 calls)
     g_psi        :      0.66s CPU      0.24s WALL (     783 calls)

     Called by h_psi:
     h_psi:calbec :    197.58s CPU     95.91s WALL (     975 calls)
     vloc_psi     :     77.42s CPU     25.45s WALL (     975 calls)
     add_vuspsi   :     10.47s CPU      3.37s WALL (     975 calls)

     General routines
     calbec       :    239.50s CPU    116.40s WALL (    1143 calls)
     fft          :      0.41s CPU      0.43s WALL (      88 calls)
     ffts         :      0.06s CPU      0.01s WALL (       7 calls)
     fftw         :     74.71s CPU     24.28s WALL (   22574 calls)

     Parallel routines

     PWSCF        :   7m54.86s CPU   3m21.19s WALL


   This run was terminated on:  23:43:38  19Jun2024            

=------------------------------------------------------------------------------=
   JOB DONE.
=------------------------------------------------------------------------------=
