### Running on host: handarmsi

     Program PWSCF v.7.2 starts on 19Jun2024 at 23:43:39 

     This program is part of the open-source Quantum ESPRESSO suite
     for quantum simulation of materials; please cite
         "P. Giannozzi et al., J. Phys.:Condens. Matter 21 395502 (2009);
         "P. Giannozzi et al., J. Phys.:Condens. Matter 29 465901 (2017);
         "P. Giannozzi et al., J. Chem. Phys. 152 154105 (2020);
          URL http://www.quantum-espresso.org", 
     in publications or presentations arising from this work. More details at
     http://www.quantum-espresso.org/quote

     Parallel version (MPI), running on     1 processors

     MPI processes distributed on     1 nodes
     5869 MiB available memory on the printing compute node when the environment starts

     Reading input from sn_scf_kpoints-16.in

     Current dimensions of program PWSCF are:
     Max number of different atomic species (ntypx) = 10
     Max number of k-points (npk) =  40000
     Max angular momentum in pseudopotentials (lmaxx) =  4

     Subspace diagonalization in iterative solution of the eigenvalue problem:
     a serial algorithm will be used


     G-vector sticks info
     --------------------
     sticks:   dense  smooth     PW     G-vecs:    dense   smooth      PW
     Sum         859     859    253                87375    87375   13497

     Using Slab Decomposition



     bravais-lattice index     =            4
     lattice parameter (alat)  =       8.8439  a.u.
     unit-cell volume          =    2560.0529 (a.u.)^3
     number of atoms/cell      =            2
     number of atomic types    =            1
     number of electrons       =        28.00
     number of Kohn-Sham states=           18
     kinetic-energy cutoff     =      40.0000  Ry
     charge density cutoff     =     160.0000  Ry
     scf convergence threshold =      1.0E-06
     mixing beta               =       0.7000
     number of iterations used =            8  plain     mixing
     Exchange-correlation= SLA  PW   PBE  PBE
                           (   1   4   3   4   0   0   0)

     celldm(1)=   8.843918  celldm(2)=   0.000000  celldm(3)=   4.273504
     celldm(4)=   0.000000  celldm(5)=   0.000000  celldm(6)=   0.000000

     crystal axes: (cart. coord. in units of alat)
               a(1) = (   1.000000   0.000000   0.000000 )  
               a(2) = (  -0.500000   0.866025   0.000000 )  
               a(3) = (   0.000000   0.000000   4.273504 )  

     reciprocal axes: (cart. coord. in units 2 pi/alat)
               b(1) = (  1.000000  0.577350 -0.000000 )  
               b(2) = (  0.000000  1.154701  0.000000 )  
               b(3) = (  0.000000 -0.000000  0.234000 )  


     PseudoPot. # 1 for Sn read from file:
     ../pseudo/Sn_pbe_v1.uspp.F.UPF
     MD5 check sum: 4cf58ce39ec5d5d420df3dd08604eb00
     Pseudo is Ultrasoft + core correction, Zval = 14.0
     Generated by new atomic code, or converted to UPF format
     Using radial grid of  891 points,  6 beta functions with: 
                l(1) =   0
                l(2) =   0
                l(3) =   1
                l(4) =   1
                l(5) =   2
                l(6) =   2
     Q(r) pseudized with  6 coefficients,  rinner =    1.200   1.200   1.200
                                                       1.200   1.200

     atomic species   valence    mass     pseudopotential
        Sn            14.00   118.71000     Sn( 1.00)

     24 Sym. Ops., with inversion, found



   Cartesian axes

     site n.     atom                  positions (alat units)
         1           Sn  tau(   1) = (   0.0000000   0.5773503   2.1367521  )
         2           Sn  tau(   2) = (   0.5000000   0.2886751   2.1367521  )

     number of k points=    30  Methfessel-Paxton smearing, width (Ry)=  0.0200
                       cart. coord. in units 2pi/alat
        k(    1) = (   0.0000000   0.0000000   0.0000000), wk =   0.0078125
        k(    2) = (   0.0000000   0.0721688   0.0000000), wk =   0.0468750
        k(    3) = (   0.0000000   0.1443376   0.0000000), wk =   0.0468750
        k(    4) = (   0.0000000   0.2165064   0.0000000), wk =   0.0468750
        k(    5) = (   0.0000000   0.2886751   0.0000000), wk =   0.0468750
        k(    6) = (   0.0000000   0.3608439   0.0000000), wk =   0.0468750
        k(    7) = (   0.0000000   0.4330127   0.0000000), wk =   0.0468750
        k(    8) = (   0.0000000   0.5051815   0.0000000), wk =   0.0468750
        k(    9) = (   0.0000000  -0.5773503   0.0000000), wk =   0.0234375
        k(   10) = (   0.0625000   0.1082532   0.0000000), wk =   0.0468750
        k(   11) = (   0.0625000   0.1804220   0.0000000), wk =   0.0937500
        k(   12) = (   0.0625000   0.2525907   0.0000000), wk =   0.0937500
        k(   13) = (   0.0625000   0.3247595   0.0000000), wk =   0.0937500
        k(   14) = (   0.0625000   0.3969283   0.0000000), wk =   0.0937500
        k(   15) = (   0.0625000   0.4690971   0.0000000), wk =   0.0937500
        k(   16) = (   0.0625000   0.5412659   0.0000000), wk =   0.0937500
        k(   17) = (   0.1250000   0.2165064   0.0000000), wk =   0.0468750
        k(   18) = (   0.1250000   0.2886751   0.0000000), wk =   0.0937500
        k(   19) = (   0.1250000   0.3608439   0.0000000), wk =   0.0937500
        k(   20) = (   0.1250000   0.4330127   0.0000000), wk =   0.0937500
        k(   21) = (   0.1250000   0.5051815   0.0000000), wk =   0.0937500
        k(   22) = (   0.1250000   0.5773503   0.0000000), wk =   0.0468750
        k(   23) = (   0.1875000   0.3247595   0.0000000), wk =   0.0468750
        k(   24) = (   0.1875000   0.3969283   0.0000000), wk =   0.0937500
        k(   25) = (   0.1875000   0.4690971   0.0000000), wk =   0.0937500
        k(   26) = (   0.1875000   0.5412659   0.0000000), wk =   0.0937500
        k(   27) = (   0.2500000   0.4330127   0.0000000), wk =   0.0468750
        k(   28) = (   0.2500000   0.5051815   0.0000000), wk =   0.0937500
        k(   29) = (   0.2500000   0.5773503   0.0000000), wk =   0.0468750
        k(   30) = (   0.3125000   0.5412659   0.0000000), wk =   0.0468750

     Dense  grid:    87375 G-vectors     FFT dimensions: (  36,  36, 160)

     Estimated max dynamical RAM per process >     401.36 MB

     Check: negative core charge=   -0.000001

     Initial potential from superposition of free atoms

     starting charge      25.9999, renormalised to      28.0000

     negative rho (up, down):  1.678E-02 0.000E+00
     Starting wfcs are   18 randomized atomic wfcs

     total cpu time spent up to now is        8.0 secs

     Self-consistent Calculation

     iteration #  1     ecut=    40.00 Ry     beta= 0.70
     Davidson diagonalization with overlap
     ethr =  1.00E-02,  avg # of iterations =  7.6

     negative rho (up, down):  1.121E-02 0.000E+00

     total cpu time spent up to now is       47.2 secs

     total energy              =    -325.42823770 Ry
     estimated scf accuracy    <       2.49634689 Ry

     iteration #  2     ecut=    40.00 Ry     beta= 0.70
     Davidson diagonalization with overlap
     ethr =  8.92E-03,  avg # of iterations =  2.1

     negative rho (up, down):  1.303E-02 0.000E+00

     total cpu time spent up to now is       76.1 secs

     total energy              =    -326.33305638 Ry
     estimated scf accuracy    <       0.37141181 Ry

     iteration #  3     ecut=    40.00 Ry     beta= 0.70
     Davidson diagonalization with overlap
     ethr =  1.33E-03,  avg # of iterations =  2.2

     negative rho (up, down):  1.426E-02 0.000E+00

     total cpu time spent up to now is      103.2 secs

     total energy              =    -326.39079126 Ry
     estimated scf accuracy    <       0.00535746 Ry

     iteration #  4     ecut=    40.00 Ry     beta= 0.70
     Davidson diagonalization with overlap
     ethr =  1.91E-05,  avg # of iterations =  9.7

     negative rho (up, down):  1.420E-02 0.000E+00

     total cpu time spent up to now is      146.9 secs

     total energy              =    -326.39270234 Ry
     estimated scf accuracy    <       0.00067485 Ry

     iteration #  5     ecut=    40.00 Ry     beta= 0.70
     Davidson diagonalization with overlap
     ethr =  2.41E-06,  avg # of iterations =  4.8

     negative rho (up, down):  1.416E-02 0.000E+00

     total cpu time spent up to now is      176.4 secs

     End of self-consistent calculation

          k = 0.0000 0.0000 0.0000 ( 10895 PWs)   bands (ev):

   -24.1425 -24.1291 -24.1291 -24.0310 -24.0310 -23.8655 -23.8655 -23.7990
   -23.7990 -23.7344 -12.2428  -4.3246  -3.7123  -3.3782  -3.3782   0.6469
     0.6469   0.6879

          k = 0.0000 0.0722 0.0000 ( 10907 PWs)   bands (ev):

   -24.1461 -24.1391 -24.1345 -24.0318 -24.0294 -23.8562 -23.8545 -23.8008
   -23.7982 -23.7340 -12.2095  -4.4444  -4.2900  -3.4522  -2.6899   0.5922
     0.7554   0.7884

          k = 0.0000 0.1443 0.0000 ( 10895 PWs)   bands (ev):

   -24.1677 -24.1643 -24.1355 -24.0343 -24.0249 -23.8336 -23.8265 -23.8059
   -23.7958 -23.7322 -12.1097  -5.3164  -4.1868  -3.6436  -2.0033   0.6116
     0.8860   1.1815

          k = 0.0000 0.2165 0.0000 ( 10897 PWs)   bands (ev):

   -24.1985 -24.1955 -24.1326 -24.0378 -24.0178 -23.8141 -23.8087 -23.7923
   -23.7909 -23.7265 -11.9447  -6.1650  -4.0172  -3.8905  -1.6110   0.8833
     1.1279   1.1938

          k = 0.0000 0.2887 0.0000 ( 10909 PWs)   bands (ev):

   -24.2297 -24.2264 -24.1287 -24.0418 -24.0086 -23.8244 -23.7912 -23.7882
   -23.7549 -23.7134 -11.7174  -6.9685  -4.1402  -3.7856  -1.5285   0.5864
     1.2348   1.7090

          k = 0.0000 0.3608 0.0000 ( 10934 PWs)   bands (ev):

   -24.2571 -24.2531 -24.1246 -24.0457 -23.9982 -23.8359 -23.7844 -23.7837
   -23.7229 -23.6943 -11.4342  -7.7094  -4.3586  -3.5006  -1.5924  -0.0217
     1.5717   2.2307

          k = 0.0000 0.4330 0.0000 ( 10948 PWs)   bands (ev):

   -24.2782 -24.2735 -24.1211 -24.0489 -23.9882 -23.8470 -23.7818 -23.7812
   -23.6981 -23.6760 -11.1127  -8.3629  -4.5258  -3.1816  -1.6831  -0.5853
     1.9611   2.5990

          k = 0.0000 0.5052 0.0000 ( 10944 PWs)   bands (ev):

   -24.2915 -24.2862 -24.1187 -24.0511 -23.9805 -23.8553 -23.7817 -23.7791
   -23.6825 -23.6634 -10.8040  -8.8727  -4.6300  -2.8803  -1.7501  -1.0380
     2.4109   3.0046

          k = 0.0000-0.5774 0.0000 ( 10920 PWs)   bands (ev):

   -24.2960 -24.2906 -24.1178 -24.0518 -23.9775 -23.8585 -23.7819 -23.7783
   -23.6772 -23.6589 -10.6540  -9.0900  -4.6653  -2.7362  -1.7741  -1.2334
     2.8364   3.0256

          k = 0.0625 0.1083 0.0000 ( 10891 PWs)   bands (ev):

   -24.1651 -24.1489 -24.1389 -24.0335 -24.0264 -23.8404 -23.8351 -23.8043
   -23.7965 -23.7329 -12.1429  -5.0799  -4.2211  -3.6013  -2.1420   0.5465
     0.8371   1.0931

          k = 0.0625 0.1804 0.0000 ( 10901 PWs)   bands (ev):

   -24.1971 -24.1711 -24.1370 -24.0367 -24.0204 -23.8165 -23.8111 -23.8050
   -23.7934 -23.7287 -12.0105  -5.8580  -4.0846  -3.8524  -1.6040   0.6073
     0.9887   1.4054

          k = 0.0625 0.2526 0.0000 ( 10908 PWs)   bands (ev):

   -24.2315 -24.1975 -24.1334 -24.0406 -24.0119 -23.8206 -23.7950 -23.7895
   -23.7732 -23.7171 -11.8140  -6.6425  -4.1297  -3.8837  -1.3380   0.8390
     0.9640   1.2387

          k = 0.0625 0.3248 0.0000 ( 10924 PWs)   bands (ev):

   -24.2632 -24.2227 -24.1293 -24.0448 -24.0016 -23.8320 -23.7854 -23.7837
   -23.7441 -23.6962 -11.5577  -7.3916  -4.3855  -3.6243  -1.3211   0.2427
     1.4056   1.7859

          k = 0.0625 0.3969 0.0000 ( 10946 PWs)   bands (ev):

   -24.2892 -24.2437 -24.1253 -24.0485 -23.9908 -23.8439 -23.7817 -23.7804
   -23.7200 -23.6729 -11.2518  -8.0776  -4.5932  -3.3187  -1.3967  -0.3375
     1.7813   2.4231

          k = 0.0625 0.4691 0.0000 ( 10945 PWs)   bands (ev):

   -24.3074 -24.2585 -24.1223 -24.0513 -23.9812 -23.8543 -23.7802 -23.7789
   -23.7026 -23.6545 -10.9252  -8.6624  -4.7379  -2.9974  -1.4747  -0.8509
     2.2038   2.7932

          k = 0.0625 0.5413 0.0000 ( 10925 PWs)   bands (ev):

   -24.3168 -24.2662 -24.1206 -24.0528 -23.9753 -23.8606 -23.7806 -23.7775
   -23.6936 -23.6446 -10.6675  -9.0505  -4.8120  -2.7480  -1.5198  -1.1988
     2.6774   3.0880

          k = 0.1250 0.2165 0.0000 ( 10891 PWs)   bands (ev):

   -24.2326 -24.1831 -24.1383 -24.0404 -24.0127 -23.8196 -23.7946 -23.7897
   -23.7827 -23.7174 -11.8463  -6.5124  -4.1743  -3.9166  -1.1239   0.6165
     0.9359   1.1592

          k = 0.1250 0.2887 0.0000 ( 10912 PWs)   bands (ev):

   -24.2673 -24.1997 -24.1368 -24.0448 -24.0026 -23.8307 -23.7854 -23.7784
   -23.7644 -23.6944 -11.6199  -7.1932  -4.5020  -3.6867  -0.8271   0.4023
     0.9109   1.4088

          k = 0.1250 0.3608 0.0000 ( 10950 PWs)   bands (ev):

   -24.2974 -24.2162 -24.1338 -24.0491 -23.9909 -23.8433 -23.7812 -23.7747
   -23.7440 -23.6671 -11.3373  -7.8557  -4.7815  -3.4031  -0.7814  -0.1490
     1.5252   1.7641

          k = 0.1250 0.4330 0.0000 ( 10958 PWs)   bands (ev):

   -24.3204 -24.2298 -24.1307 -24.0527 -23.9792 -23.8558 -23.7778 -23.7753
   -23.7270 -23.6436 -11.0142  -8.4625  -4.9899  -3.0831  -0.8330  -0.6759
     2.0510   2.4581

          k = 0.1250 0.5052 0.0000 ( 10943 PWs)   bands (ev):

   -24.3348 -24.2385 -24.1284 -24.0550 -23.9699 -23.8658 -23.7765 -23.7755
   -23.7160 -23.6281 -10.6983  -8.9532  -5.1175  -2.7752  -1.1139  -0.8857
     2.5108   2.7523

          k = 0.1250 0.5774 0.0000 ( 10939 PWs)   bands (ev):

   -24.3396 -24.2415 -24.1276 -24.0558 -23.9661 -23.8697 -23.7770 -23.7747
   -23.7122 -23.6228 -10.5399  -9.1707  -5.1605  -2.6230  -1.3104  -0.9060
     2.7647   2.9276

          k = 0.1875 0.3248 0.0000 ( 10935 PWs)   bands (ev):

   -24.3002 -24.2039 -24.1394 -24.0495 -23.9907 -23.8434 -23.7809 -23.7657
   -23.7599 -23.6649 -11.3661  -7.7683  -4.8731  -3.4316  -0.3188  -0.0763
     0.9909   1.6771

          k = 0.1875 0.3969 0.0000 ( 10962 PWs)   bands (ev):

   -24.3271 -24.2093 -24.1400 -24.0538 -23.9773 -23.8576 -23.7768 -23.7671
   -23.7462 -23.6376 -11.0609  -8.3346  -5.1752  -3.1281  -0.5655  -0.0911
     1.4759   2.0211

          k = 0.1875 0.4691 0.0000 ( 10966 PWs)   bands (ev):

   -24.3461 -24.2142 -24.1396 -24.0571 -23.9643 -23.8711 -23.7737 -23.7696
   -23.7356 -23.6172 -10.7270  -8.8523  -5.3830  -2.8007  -1.0262  -0.0721
     2.2532   2.4349

          k = 0.1875 0.5413 0.0000 ( 10962 PWs)   bands (ev):

   -24.3558 -24.2170 -24.1390 -24.0588 -23.9553 -23.8804 -23.7720 -23.7711
   -23.7300 -23.6065 -10.4461  -9.2281  -5.4881  -2.5293  -1.3670  -0.0894
     2.4176   2.8623

          k = 0.2500 0.4330 0.0000 ( 10961 PWs)   bands (ev):

   -24.3499 -24.2028 -24.1463 -24.0579 -23.9619 -23.8734 -23.7730 -23.7637
   -23.7460 -23.6135 -10.7384  -8.8090  -5.4860  -2.8107  -0.9887   0.5223
     1.6018   2.3840

          k = 0.2500 0.5052 0.0000 ( 10975 PWs)   bands (ev):

   -24.3642 -24.1979 -24.1511 -24.0605 -23.9470 -23.8886 -23.7704 -23.7639
   -23.7438 -23.5979 -10.3994  -9.2427  -5.6802  -2.4814  -1.3841   0.7672
     2.1555   2.2194

          k = 0.2500 0.5774 0.0000 ( 10975 PWs)   bands (ev):

   -24.3691 -24.1960 -24.1529 -24.0615 -23.9394 -23.8963 -23.7695 -23.7643
   -23.7427 -23.5926 -10.1961  -9.4782  -5.7459  -2.2865  -1.6015   0.8028
     2.1591   2.6147

          k = 0.3125 0.5413 0.0000 ( 10975 PWs)   bands (ev):

   -24.3736 -24.1825 -24.1640 -24.0625 -23.9291 -23.9067 -23.7686 -23.7585
   -23.7506 -23.5878 -10.0518  -9.6196  -5.8377  -2.1466  -1.7359   1.4998
     2.0670   2.0711

     the Fermi energy is    -2.2834 ev

!    total energy              =    -326.39284198 Ry
     estimated scf accuracy    <       0.00000077 Ry
     smearing contrib. (-TS)   =       0.00030969 Ry
     internal energy E=F+TS    =    -326.39315166 Ry

     The total energy is F=E-TS. E is the sum of the following terms:
     one-electron contribution =    -882.80047825 Ry
     hartree contribution      =     448.50251354 Ry
     xc contribution           =     -95.07349071 Ry
     ewald contribution        =     202.97830376 Ry

     convergence has been achieved in   5 iterations

     Writing all to output data dir ../tmp/stanene.save/

     init_run     :     18.15s CPU      7.93s WALL (       1 calls)
     electrons    :    399.77s CPU    168.46s WALL (       1 calls)

     Called by init_run:
     wfcinit      :     17.17s CPU      7.18s WALL (       1 calls)
     potinit      :      0.08s CPU      0.09s WALL (       1 calls)
     hinit0       :      0.47s CPU      0.47s WALL (       1 calls)

     Called by electrons:
     c_bands      :    338.76s CPU    140.41s WALL (       5 calls)
     sum_band     :     51.57s CPU     23.07s WALL (       5 calls)
     v_of_rho     :      0.27s CPU      0.29s WALL (       6 calls)
     newd         :      9.49s CPU      4.82s WALL (       6 calls)
     mix_rho      :      0.03s CPU      0.03s WALL (       5 calls)

     Called by c_bands:
     init_us_2    :      3.19s CPU      1.06s WALL (     330 calls)
     init_us_2:cp :      3.19s CPU      1.06s WALL (     330 calls)
     cegterg      :    331.63s CPU    138.12s WALL (     150 calls)

     Called by *egterg:
     cdiaghg      :      3.59s CPU      1.29s WALL (     944 calls)
     h_psi        :    255.84s CPU    110.47s WALL (     974 calls)
     s_psi        :      9.47s CPU      3.02s WALL (     974 calls)
     g_psi        :      0.69s CPU      0.24s WALL (     794 calls)

     Called by h_psi:
     h_psi:calbec :    170.86s CPU     82.74s WALL (     974 calls)
     vloc_psi     :     75.04s CPU     24.45s WALL (     974 calls)
     add_vuspsi   :      9.26s CPU      3.04s WALL (     974 calls)

     General routines
     calbec       :    206.57s CPU    100.42s WALL (    1124 calls)
     fft          :      0.39s CPU      0.40s WALL (      66 calls)
     ffts         :      0.02s CPU      0.01s WALL (       5 calls)
     fftw         :     71.94s CPU     23.25s WALL (   21246 calls)

     Parallel routines

     PWSCF        :   6m58.16s CPU   2m56.58s WALL


   This run was terminated on:  23:46:35  19Jun2024            

=------------------------------------------------------------------------------=
   JOB DONE.
=------------------------------------------------------------------------------=
