### Running on host: handarmsi

     Program PWSCF v.7.2 starts on 20Jun2024 at  1:58:18 

     This program is part of the open-source Quantum ESPRESSO suite
     for quantum simulation of materials; please cite
         "P. Giannozzi et al., J. Phys.:Condens. Matter 21 395502 (2009);
         "P. Giannozzi et al., J. Phys.:Condens. Matter 29 465901 (2017);
         "P. Giannozzi et al., J. Chem. Phys. 152 154105 (2020);
          URL http://www.quantum-espresso.org", 
     in publications or presentations arising from this work. More details at
     http://www.quantum-espresso.org/quote

     Parallel version (MPI), running on     1 processors

     MPI processes distributed on     1 nodes
     5224 MiB available memory on the printing compute node when the environment starts

     Reading input from sn_scf_kpoints-50.in

     Current dimensions of program PWSCF are:
     Max number of different atomic species (ntypx) = 10
     Max number of k-points (npk) =  40000
     Max angular momentum in pseudopotentials (lmaxx) =  4

     Subspace diagonalization in iterative solution of the eigenvalue problem:
     a serial algorithm will be used


     G-vector sticks info
     --------------------
     sticks:   dense  smooth     PW     G-vecs:    dense   smooth      PW
     Sum         859     859    253                87375    87375   13605

     Using Slab Decomposition



     bravais-lattice index     =            4
     lattice parameter (alat)  =       8.8439  a.u.
     unit-cell volume          =    2560.0529 (a.u.)^3
     number of atoms/cell      =            2
     number of atomic types    =            1
     number of electrons       =        28.00
     number of Kohn-Sham states=           18
     kinetic-energy cutoff     =      40.0000  Ry
     charge density cutoff     =     160.0000  Ry
     scf convergence threshold =      1.0E-06
     mixing beta               =       0.7000
     number of iterations used =            8  plain     mixing
     Exchange-correlation= SLA  PW   PBE  PBE
                           (   1   4   3   4   0   0   0)

     celldm(1)=   8.843918  celldm(2)=   0.000000  celldm(3)=   4.273504
     celldm(4)=   0.000000  celldm(5)=   0.000000  celldm(6)=   0.000000

     crystal axes: (cart. coord. in units of alat)
               a(1) = (   1.000000   0.000000   0.000000 )  
               a(2) = (  -0.500000   0.866025   0.000000 )  
               a(3) = (   0.000000   0.000000   4.273504 )  

     reciprocal axes: (cart. coord. in units 2 pi/alat)
               b(1) = (  1.000000  0.577350 -0.000000 )  
               b(2) = (  0.000000  1.154701  0.000000 )  
               b(3) = (  0.000000 -0.000000  0.234000 )  


     PseudoPot. # 1 for Sn read from file:
     ../pseudo/Sn_pbe_v1.uspp.F.UPF
     MD5 check sum: 4cf58ce39ec5d5d420df3dd08604eb00
     Pseudo is Ultrasoft + core correction, Zval = 14.0
     Generated by new atomic code, or converted to UPF format
     Using radial grid of  891 points,  6 beta functions with: 
                l(1) =   0
                l(2) =   0
                l(3) =   1
                l(4) =   1
                l(5) =   2
                l(6) =   2
     Q(r) pseudized with  6 coefficients,  rinner =    1.200   1.200   1.200
                                                       1.200   1.200

     atomic species   valence    mass     pseudopotential
        Sn            14.00   118.71000     Sn( 1.00)

     24 Sym. Ops., with inversion, found



   Cartesian axes

     site n.     atom                  positions (alat units)
         1           Sn  tau(   1) = (   0.0000000   0.5773503   2.1367521  )
         2           Sn  tau(   2) = (   0.5000000   0.2886751   2.1367521  )

     number of k points=   234  Methfessel-Paxton smearing, width (Ry)=  0.0200

     Number of k-points >= 100: set verbosity='high' to print them.

     Dense  grid:    87375 G-vectors     FFT dimensions: (  36,  36, 160)

     Estimated max dynamical RAM per process >    1014.17 MB

     Check: negative core charge=   -0.000001

     Initial potential from superposition of free atoms

     starting charge      25.9999, renormalised to      28.0000

     negative rho (up, down):  1.678E-02 0.000E+00
     Starting wfcs are   18 randomized atomic wfcs

     total cpu time spent up to now is       53.7 secs

     Self-consistent Calculation

     iteration #  1     ecut=    40.00 Ry     beta= 0.70
     Davidson diagonalization with overlap
     ethr =  1.00E-02,  avg # of iterations =  7.9

     negative rho (up, down):  1.104E-02 0.000E+00

     total cpu time spent up to now is      371.1 secs

     total energy              =    -325.42622435 Ry
     estimated scf accuracy    <       2.49889628 Ry

     iteration #  2     ecut=    40.00 Ry     beta= 0.70
     Davidson diagonalization with overlap
     ethr =  8.92E-03,  avg # of iterations =  2.1

     negative rho (up, down):  1.292E-02 0.000E+00

     total cpu time spent up to now is      590.7 secs

     total energy              =    -326.33258391 Ry
     estimated scf accuracy    <       0.37323319 Ry

     iteration #  3     ecut=    40.00 Ry     beta= 0.70
     Davidson diagonalization with overlap
     ethr =  1.33E-03,  avg # of iterations =  2.2

     negative rho (up, down):  1.423E-02 0.000E+00

     total cpu time spent up to now is      828.5 secs

     total energy              =    -326.39072840 Ry
     estimated scf accuracy    <       0.00544006 Ry

     iteration #  4     ecut=    40.00 Ry     beta= 0.70
     Davidson diagonalization with overlap
     ethr =  1.94E-05,  avg # of iterations = 10.3

     negative rho (up, down):  1.419E-02 0.000E+00

     total cpu time spent up to now is     1222.7 secs

     total energy              =    -326.39266325 Ry
     estimated scf accuracy    <       0.00069297 Ry

     iteration #  5     ecut=    40.00 Ry     beta= 0.70
     Davidson diagonalization with overlap
     ethr =  2.47E-06,  avg # of iterations =  4.1

     negative rho (up, down):  1.416E-02 0.000E+00

     total cpu time spent up to now is     1458.2 secs

     End of self-consistent calculation

     Number of k-points >= 100: set verbosity='high' to print the bands.

     the Fermi energy is    -2.2967 ev

!    total energy              =    -326.39281396 Ry
     estimated scf accuracy    <       0.00000039 Ry
     smearing contrib. (-TS)   =       0.00023717 Ry
     internal energy E=F+TS    =    -326.39305113 Ry

     The total energy is F=E-TS. E is the sum of the following terms:
     one-electron contribution =    -882.82102472 Ry
     hartree contribution      =     448.52486192 Ry
     xc contribution           =     -95.07519209 Ry
     ewald contribution        =     202.97830376 Ry

     convergence has been achieved in   5 iterations

     Writing all to output data dir ../tmp/stanene.save/

     init_run     :    126.31s CPU     53.62s WALL (       1 calls)
     electrons    :   3244.84s CPU   1404.52s WALL (       1 calls)

     Called by init_run:
     wfcinit      :    123.21s CPU     51.64s WALL (       1 calls)
     potinit      :      0.09s CPU      0.09s WALL (       1 calls)
     hinit0       :      0.45s CPU      0.47s WALL (       1 calls)

     Called by electrons:
     c_bands      :   2797.01s CPU   1197.39s WALL (       5 calls)
     sum_band     :    438.32s CPU    202.07s WALL (       5 calls)
     v_of_rho     :      0.30s CPU      0.30s WALL (       6 calls)
     newd         :     11.52s CPU      5.94s WALL (       6 calls)
     mix_rho      :      0.03s CPU      0.04s WALL (       5 calls)

     Called by c_bands:
     init_us_2    :     26.56s CPU      8.44s WALL (    2574 calls)
     init_us_2:cp :     26.53s CPU      8.44s WALL (    2574 calls)
     cegterg      :   2738.94s CPU   1178.80s WALL (    1170 calls)

     Called by *egterg:
     cdiaghg      :     30.57s CPU     11.76s WALL (    7391 calls)
     h_psi        :   2103.70s CPU    942.47s WALL (    7625 calls)
     s_psi        :     77.63s CPU     26.97s WALL (    7625 calls)
     g_psi        :      5.15s CPU      1.90s WALL (    6221 calls)

     Called by h_psi:
     h_psi:calbec :   1455.05s CPU    722.16s WALL (    7625 calls)
     vloc_psi     :    568.53s CPU    191.82s WALL (    7625 calls)
     add_vuspsi   :     75.32s CPU     26.54s WALL (    7625 calls)

     General routines
     calbec       :   1778.22s CPU    885.71s WALL (    8795 calls)
     fft          :      0.38s CPU      0.39s WALL (      66 calls)
     ffts         :      0.02s CPU      0.01s WALL (       5 calls)
     fftw         :    552.31s CPU    183.51s WALL (  165900 calls)

     Parallel routines

     PWSCF        :  56m11.51s CPU  24m19.19s WALL


   This run was terminated on:   2:22:37  20Jun2024            

=------------------------------------------------------------------------------=
   JOB DONE.
=------------------------------------------------------------------------------=
