### Running on host: handarmsi

     Program PWSCF v.7.2 starts on 20Jun2024 at  0: 4:13 

     This program is part of the open-source Quantum ESPRESSO suite
     for quantum simulation of materials; please cite
         "P. Giannozzi et al., J. Phys.:Condens. Matter 21 395502 (2009);
         "P. Giannozzi et al., J. Phys.:Condens. Matter 29 465901 (2017);
         "P. Giannozzi et al., J. Chem. Phys. 152 154105 (2020);
          URL http://www.quantum-espresso.org", 
     in publications or presentations arising from this work. More details at
     http://www.quantum-espresso.org/quote

     Parallel version (MPI), running on     1 processors

     MPI processes distributed on     1 nodes
     5684 MiB available memory on the printing compute node when the environment starts

     Reading input from sn_scf_kpoints-30.in

     Current dimensions of program PWSCF are:
     Max number of different atomic species (ntypx) = 10
     Max number of k-points (npk) =  40000
     Max angular momentum in pseudopotentials (lmaxx) =  4

     Subspace diagonalization in iterative solution of the eigenvalue problem:
     a serial algorithm will be used


     G-vector sticks info
     --------------------
     sticks:   dense  smooth     PW     G-vecs:    dense   smooth      PW
     Sum         859     859    253                87375    87375   13629

     Using Slab Decomposition



     bravais-lattice index     =            4
     lattice parameter (alat)  =       8.8439  a.u.
     unit-cell volume          =    2560.0529 (a.u.)^3
     number of atoms/cell      =            2
     number of atomic types    =            1
     number of electrons       =        28.00
     number of Kohn-Sham states=           18
     kinetic-energy cutoff     =      40.0000  Ry
     charge density cutoff     =     160.0000  Ry
     scf convergence threshold =      1.0E-06
     mixing beta               =       0.7000
     number of iterations used =            8  plain     mixing
     Exchange-correlation= SLA  PW   PBE  PBE
                           (   1   4   3   4   0   0   0)

     celldm(1)=   8.843918  celldm(2)=   0.000000  celldm(3)=   4.273504
     celldm(4)=   0.000000  celldm(5)=   0.000000  celldm(6)=   0.000000

     crystal axes: (cart. coord. in units of alat)
               a(1) = (   1.000000   0.000000   0.000000 )  
               a(2) = (  -0.500000   0.866025   0.000000 )  
               a(3) = (   0.000000   0.000000   4.273504 )  

     reciprocal axes: (cart. coord. in units 2 pi/alat)
               b(1) = (  1.000000  0.577350 -0.000000 )  
               b(2) = (  0.000000  1.154701  0.000000 )  
               b(3) = (  0.000000 -0.000000  0.234000 )  


     PseudoPot. # 1 for Sn read from file:
     ../pseudo/Sn_pbe_v1.uspp.F.UPF
     MD5 check sum: 4cf58ce39ec5d5d420df3dd08604eb00
     Pseudo is Ultrasoft + core correction, Zval = 14.0
     Generated by new atomic code, or converted to UPF format
     Using radial grid of  891 points,  6 beta functions with: 
                l(1) =   0
                l(2) =   0
                l(3) =   1
                l(4) =   1
                l(5) =   2
                l(6) =   2
     Q(r) pseudized with  6 coefficients,  rinner =    1.200   1.200   1.200
                                                       1.200   1.200

     atomic species   valence    mass     pseudopotential
        Sn            14.00   118.71000     Sn( 1.00)

     24 Sym. Ops., with inversion, found



   Cartesian axes

     site n.     atom                  positions (alat units)
         1           Sn  tau(   1) = (   0.0000000   0.5773503   2.1367521  )
         2           Sn  tau(   2) = (   0.5000000   0.2886751   2.1367521  )

     number of k points=    91  Methfessel-Paxton smearing, width (Ry)=  0.0200
                       cart. coord. in units 2pi/alat
        k(    1) = (   0.0000000   0.0000000   0.0000000), wk =   0.0022222
        k(    2) = (   0.0000000   0.0384900   0.0000000), wk =   0.0133333
        k(    3) = (   0.0000000   0.0769800   0.0000000), wk =   0.0133333
        k(    4) = (   0.0000000   0.1154701   0.0000000), wk =   0.0133333
        k(    5) = (   0.0000000   0.1539601   0.0000000), wk =   0.0133333
        k(    6) = (   0.0000000   0.1924501   0.0000000), wk =   0.0133333
        k(    7) = (   0.0000000   0.2309401   0.0000000), wk =   0.0133333
        k(    8) = (   0.0000000   0.2694301   0.0000000), wk =   0.0133333
        k(    9) = (   0.0000000   0.3079201   0.0000000), wk =   0.0133333
        k(   10) = (   0.0000000   0.3464102   0.0000000), wk =   0.0133333
        k(   11) = (   0.0000000   0.3849002   0.0000000), wk =   0.0133333
        k(   12) = (   0.0000000   0.4233902   0.0000000), wk =   0.0133333
        k(   13) = (   0.0000000   0.4618802   0.0000000), wk =   0.0133333
        k(   14) = (   0.0000000   0.5003702   0.0000000), wk =   0.0133333
        k(   15) = (   0.0000000   0.5388603   0.0000000), wk =   0.0133333
        k(   16) = (   0.0000000  -0.5773503   0.0000000), wk =   0.0066667
        k(   17) = (   0.0333333   0.0577350   0.0000000), wk =   0.0133333
        k(   18) = (   0.0333333   0.0962250   0.0000000), wk =   0.0266667
        k(   19) = (   0.0333333   0.1347151   0.0000000), wk =   0.0266667
        k(   20) = (   0.0333333   0.1732051   0.0000000), wk =   0.0266667
        k(   21) = (   0.0333333   0.2116951   0.0000000), wk =   0.0266667
        k(   22) = (   0.0333333   0.2501851   0.0000000), wk =   0.0266667
        k(   23) = (   0.0333333   0.2886751   0.0000000), wk =   0.0266667
        k(   24) = (   0.0333333   0.3271652   0.0000000), wk =   0.0266667
        k(   25) = (   0.0333333   0.3656552   0.0000000), wk =   0.0266667
        k(   26) = (   0.0333333   0.4041452   0.0000000), wk =   0.0266667
        k(   27) = (   0.0333333   0.4426352   0.0000000), wk =   0.0266667
        k(   28) = (   0.0333333   0.4811252   0.0000000), wk =   0.0266667
        k(   29) = (   0.0333333   0.5196152   0.0000000), wk =   0.0266667
        k(   30) = (   0.0333333   0.5581053   0.0000000), wk =   0.0266667
        k(   31) = (   0.0666667   0.1154701   0.0000000), wk =   0.0133333
        k(   32) = (   0.0666667   0.1539601   0.0000000), wk =   0.0266667
        k(   33) = (   0.0666667   0.1924501   0.0000000), wk =   0.0266667
        k(   34) = (   0.0666667   0.2309401   0.0000000), wk =   0.0266667
        k(   35) = (   0.0666667   0.2694301   0.0000000), wk =   0.0266667
        k(   36) = (   0.0666667   0.3079201   0.0000000), wk =   0.0266667
        k(   37) = (   0.0666667   0.3464102   0.0000000), wk =   0.0266667
        k(   38) = (   0.0666667   0.3849002   0.0000000), wk =   0.0266667
        k(   39) = (   0.0666667   0.4233902   0.0000000), wk =   0.0266667
        k(   40) = (   0.0666667   0.4618802   0.0000000), wk =   0.0266667
        k(   41) = (   0.0666667   0.5003702   0.0000000), wk =   0.0266667
        k(   42) = (   0.0666667   0.5388603   0.0000000), wk =   0.0266667
        k(   43) = (   0.0666667   0.5773503   0.0000000), wk =   0.0133333
        k(   44) = (   0.1000000   0.1732051   0.0000000), wk =   0.0133333
        k(   45) = (   0.1000000   0.2116951   0.0000000), wk =   0.0266667
        k(   46) = (   0.1000000   0.2501851   0.0000000), wk =   0.0266667
        k(   47) = (   0.1000000   0.2886751   0.0000000), wk =   0.0266667
        k(   48) = (   0.1000000   0.3271652   0.0000000), wk =   0.0266667
        k(   49) = (   0.1000000   0.3656552   0.0000000), wk =   0.0266667
        k(   50) = (   0.1000000   0.4041452   0.0000000), wk =   0.0266667
        k(   51) = (   0.1000000   0.4426352   0.0000000), wk =   0.0266667
        k(   52) = (   0.1000000   0.4811252   0.0000000), wk =   0.0266667
        k(   53) = (   0.1000000   0.5196152   0.0000000), wk =   0.0266667
        k(   54) = (   0.1000000   0.5581053   0.0000000), wk =   0.0266667
        k(   55) = (   0.1333333   0.2309401   0.0000000), wk =   0.0133333
        k(   56) = (   0.1333333   0.2694301   0.0000000), wk =   0.0266667
        k(   57) = (   0.1333333   0.3079201   0.0000000), wk =   0.0266667
        k(   58) = (   0.1333333   0.3464102   0.0000000), wk =   0.0266667
        k(   59) = (   0.1333333   0.3849002   0.0000000), wk =   0.0266667
        k(   60) = (   0.1333333   0.4233902   0.0000000), wk =   0.0266667
        k(   61) = (   0.1333333   0.4618802   0.0000000), wk =   0.0266667
        k(   62) = (   0.1333333   0.5003702   0.0000000), wk =   0.0266667
        k(   63) = (   0.1333333   0.5388603   0.0000000), wk =   0.0266667
        k(   64) = (   0.1333333   0.5773503   0.0000000), wk =   0.0133333
        k(   65) = (   0.1666667   0.2886751   0.0000000), wk =   0.0133333
        k(   66) = (   0.1666667   0.3271652   0.0000000), wk =   0.0266667
        k(   67) = (   0.1666667   0.3656552   0.0000000), wk =   0.0266667
        k(   68) = (   0.1666667   0.4041452   0.0000000), wk =   0.0266667
        k(   69) = (   0.1666667   0.4426352   0.0000000), wk =   0.0266667
        k(   70) = (   0.1666667   0.4811252   0.0000000), wk =   0.0266667
        k(   71) = (   0.1666667   0.5196152   0.0000000), wk =   0.0266667
        k(   72) = (   0.1666667   0.5581053   0.0000000), wk =   0.0266667
        k(   73) = (   0.2000000   0.3464102   0.0000000), wk =   0.0133333
        k(   74) = (   0.2000000   0.3849002   0.0000000), wk =   0.0266667
        k(   75) = (   0.2000000   0.4233902   0.0000000), wk =   0.0266667
        k(   76) = (   0.2000000   0.4618802   0.0000000), wk =   0.0266667
        k(   77) = (   0.2000000   0.5003702   0.0000000), wk =   0.0266667
        k(   78) = (   0.2000000   0.5388603   0.0000000), wk =   0.0266667
        k(   79) = (   0.2000000   0.5773503   0.0000000), wk =   0.0133333
        k(   80) = (   0.2333333   0.4041452   0.0000000), wk =   0.0133333
        k(   81) = (   0.2333333   0.4426352   0.0000000), wk =   0.0266667
        k(   82) = (   0.2333333   0.4811252   0.0000000), wk =   0.0266667
        k(   83) = (   0.2333333   0.5196152   0.0000000), wk =   0.0266667
        k(   84) = (   0.2333333   0.5581053   0.0000000), wk =   0.0266667
        k(   85) = (   0.2666667   0.4618802   0.0000000), wk =   0.0133333
        k(   86) = (   0.2666667   0.5003702   0.0000000), wk =   0.0266667
        k(   87) = (   0.2666667   0.5388603   0.0000000), wk =   0.0266667
        k(   88) = (   0.2666667   0.5773503   0.0000000), wk =   0.0133333
        k(   89) = (   0.3000000   0.5196152   0.0000000), wk =   0.0133333
        k(   90) = (   0.3000000   0.5581053   0.0000000), wk =   0.0266667
        k(   91) = (   0.3333333   0.5773503   0.0000000), wk =   0.0044444

     Dense  grid:    87375 G-vectors     FFT dimensions: (  36,  36, 160)

     Estimated max dynamical RAM per process >     584.60 MB

     Check: negative core charge=   -0.000001

     Initial potential from superposition of free atoms

     starting charge      25.9999, renormalised to      28.0000

     negative rho (up, down):  1.678E-02 0.000E+00
     Starting wfcs are   18 randomized atomic wfcs

     total cpu time spent up to now is       23.6 secs

     Self-consistent Calculation

     iteration #  1     ecut=    40.00 Ry     beta= 0.70
     Davidson diagonalization with overlap
     ethr =  1.00E-02,  avg # of iterations =  7.8

     negative rho (up, down):  9.772E-03 0.000E+00

     total cpu time spent up to now is      145.7 secs

     total energy              =    -325.42415182 Ry
     estimated scf accuracy    <       2.50071140 Ry

     iteration #  2     ecut=    40.00 Ry     beta= 0.70
     Davidson diagonalization with overlap
     ethr =  8.93E-03,  avg # of iterations =  2.1

     negative rho (up, down):  1.224E-02 0.000E+00

     total cpu time spent up to now is      226.8 secs

     total energy              =    -326.33235584 Ry
     estimated scf accuracy    <       0.37467515 Ry

     iteration #  3     ecut=    40.00 Ry     beta= 0.70
     Davidson diagonalization with overlap
     ethr =  1.34E-03,  avg # of iterations =  2.2

     negative rho (up, down):  1.415E-02 0.000E+00

     total cpu time spent up to now is      313.7 secs

     total energy              =    -326.39071369 Ry
     estimated scf accuracy    <       0.00547797 Ry

     iteration #  4     ecut=    40.00 Ry     beta= 0.70
     Davidson diagonalization with overlap
     ethr =  1.96E-05,  avg # of iterations =  9.9

     negative rho (up, down):  1.418E-02 0.000E+00

     total cpu time spent up to now is      447.7 secs

     total energy              =    -326.39265950 Ry
     estimated scf accuracy    <       0.00070074 Ry

     iteration #  5     ecut=    40.00 Ry     beta= 0.70
     Davidson diagonalization with overlap
     c_bands:  1 eigenvalues not converged
     ethr =  2.50E-06,  avg # of iterations =  4.4

     negative rho (up, down):  1.416E-02 0.000E+00

     total cpu time spent up to now is      538.0 secs

     End of self-consistent calculation

          k = 0.0000 0.0000 0.0000 ( 10895 PWs)   bands (ev):

   -24.1422 -24.1279 -24.1279 -24.0306 -24.0306 -23.8644 -23.8644 -23.7987
   -23.7987 -23.7343 -12.2406  -4.3235  -3.7106  -3.3756  -3.3756   0.6495
     0.6495   0.6875

          k = 0.0000 0.0385 0.0000 ( 10911 PWs)   bands (ev):

   -24.1428 -24.1308 -24.1299 -24.0308 -24.0302 -23.8616 -23.8611 -23.7992
   -23.7984 -23.7342 -12.2311  -4.3136  -4.0417  -3.3972  -3.0560   0.6235
     0.6904   0.7149

          k = 0.0000 0.0770 0.0000 ( 10899 PWs)   bands (ev):

   -24.1464 -24.1392 -24.1339 -24.0316 -24.0289 -23.8538 -23.8518 -23.8007
   -23.7977 -23.7339 -12.2027  -4.5004  -4.2841  -3.4594  -2.6363   0.5909
     0.7623   0.8100

          k = 0.0000 0.1155 0.0000 ( 10877 PWs)   bands (ev):

   -24.1563 -24.1518 -24.1352 -24.0327 -24.0267 -23.8424 -23.8379 -23.8032
   -23.7965 -23.7331 -12.1553  -4.9666  -4.2351  -3.5542  -2.2497   0.5834
     0.8253   1.0006

          k = 0.0000 0.1540 0.0000 ( 10907 PWs)   bands (ev):

   -24.1706 -24.1670 -24.1346 -24.0343 -24.0238 -23.8291 -23.8208 -23.8065
   -23.7950 -23.7316 -12.0892  -5.4293  -4.1668  -3.6720  -1.9287   0.6331
     0.9098   1.2521

          k = 0.0000 0.1925 0.0000 ( 10909 PWs)   bands (ev):

   -24.1869 -24.1836 -24.1332 -24.0361 -24.0201 -23.8156 -23.8107 -23.8019
   -23.7932 -23.7289 -12.0046  -5.8841  -4.0798  -3.8030  -1.7000   0.7652
     1.0263   1.3880

          k = 0.0000 0.2309 0.0000 ( 10895 PWs)   bands (ev):

   -24.2038 -24.2006 -24.1314 -24.0382 -24.0157 -23.8156 -23.8035 -23.7911
   -23.7824 -23.7242 -11.9019  -6.3276  -3.9746  -3.9389  -1.5719   0.9605
     1.0758   1.2094

          k = 0.0000 0.2694 0.0000 ( 10921 PWs)   bands (ev):

   -24.2206 -24.2172 -24.1293 -24.0403 -24.0108 -23.8212 -23.7941 -23.7890
   -23.7631 -23.7172 -11.7816  -6.7574  -4.0728  -3.8520  -1.5268   0.7512
     1.1482   1.5170

          k = 0.0000 0.3079 0.0000 ( 10905 PWs)   bands (ev):

   -24.2365 -24.2328 -24.1271 -24.0425 -24.0055 -23.8271 -23.7878 -23.7868
   -23.7446 -23.7081 -11.6446  -7.1708  -4.1998  -3.7132  -1.5356   0.4233
     1.3208   1.9154

          k = 0.0000 0.3464 0.0000 ( 10922 PWs)   bands (ev):

   -24.2510 -24.2470 -24.1249 -24.0446 -24.0000 -23.8333 -23.7848 -23.7841
   -23.7277 -23.6976 -11.4925  -7.5650  -4.3159  -3.5601  -1.5726   0.0987
     1.5004   2.1630

          k = 0.0000 0.3849 0.0000 ( 10938 PWs)   bands (ev):

   -24.2639 -24.2595 -24.1229 -24.0465 -23.9944 -23.8394 -23.7829 -23.7823
   -23.7126 -23.6871 -11.3277  -7.9364  -4.4181  -3.3955  -1.6208  -0.2160
     1.6943   2.3466

          k = 0.0000 0.4234 0.0000 ( 10948 PWs)   bands (ev):

   -24.2748 -24.2700 -24.1210 -24.0482 -23.9891 -23.8453 -23.7815 -23.7812
   -23.6998 -23.6774 -11.1543  -8.2800  -4.5042  -3.2237  -1.6694  -0.5137
     1.9053   2.5463

          k = 0.0000 0.4619 0.0000 ( 10942 PWs)   bands (ev):

   -24.2834 -24.2783 -24.1195 -24.0496 -23.9843 -23.8504 -23.7813 -23.7798
   -23.6896 -23.6692 -10.9802  -8.5872  -4.5727  -3.0528  -1.7120  -0.7844
     2.1337   2.7587

          k = 0.0000 0.5004 0.0000 ( 10940 PWs)   bands (ev):

   -24.2897 -24.2844 -24.1183 -24.0506 -23.9805 -23.8546 -23.7814 -23.7788
   -23.6821 -23.6631 -10.8198  -8.8432  -4.6224  -2.8967  -1.7446  -1.0126
     2.3788   2.9772

          k = 0.0000 0.5389 0.0000 ( 10936 PWs)   bands (ev):

   -24.2936 -24.2881 -24.1176 -24.0512 -23.9780 -23.8572 -23.7815 -23.7782
   -23.6775 -23.6593 -10.6986  -9.0217  -4.6525  -2.7799  -1.7650  -1.1730
     2.6359   3.1828

          k = 0.0000-0.5774 0.0000 ( 10920 PWs)   bands (ev):

   -24.2949 -24.2893 -24.1173 -24.0514 -23.9772 -23.8582 -23.7816 -23.7780
   -23.6760 -23.6581 -10.6518  -9.0877  -4.6626  -2.7351  -1.7718  -1.2324
     2.8362   3.0251

          k = 0.0333 0.0577 0.0000 ( 10897 PWs)   bands (ev):

   -24.1452 -24.1349 -24.1342 -24.0313 -24.0293 -23.8564 -23.8548 -23.8002
   -23.7979 -23.7340 -12.2121  -4.3755  -4.2939  -3.4407  -2.7456   0.5953
     0.7476   0.7741

          k = 0.0333 0.0962 0.0000 ( 10891 PWs)   bands (ev):

   -24.1540 -24.1434 -24.1367 -24.0323 -24.0275 -23.8468 -23.8432 -23.8022
   -23.7970 -23.7334 -12.1742  -4.8001  -4.2547  -3.5232  -2.3742   0.5688
     0.7984   0.9385

          k = 0.0333 0.1347 0.0000 ( 10889 PWs)   bands (ev):

   -24.1682 -24.1559 -24.1363 -24.0337 -24.0250 -23.8345 -23.8279 -23.8051
   -23.7956 -23.7323 -12.1175  -5.2451  -4.1960  -3.6345  -2.0291   0.5765
     0.8680   1.1726

          k = 0.0333 0.1732 0.0000 ( 10907 PWs)   bands (ev):

   -24.1850 -24.1704 -24.1350 -24.0354 -24.0216 -23.8210 -23.8102 -23.8089
   -23.7939 -23.7301 -12.0422  -5.6920  -4.1184  -3.7640  -1.7522   0.6527
     0.9608   1.4651

          k = 0.0333 0.2117 0.0000 ( 10907 PWs)   bands (ev):

   -24.2027 -24.1860 -24.1332 -24.0374 -24.0176 -23.8135 -23.8081 -23.7920
   -23.7915 -23.7262 -11.9485  -6.1332  -4.0222  -3.9022  -1.5690   0.8169
     1.0872   1.2153

          k = 0.0333 0.2502 0.0000 ( 10909 PWs)   bands (ev):

   -24.2204 -24.2017 -24.1312 -24.0395 -24.0129 -23.8188 -23.7973 -23.7898
   -23.7728 -23.7199 -11.8369  -6.5643  -4.0413  -3.9082  -1.4794   0.8989
     1.0354   1.2853

          k = 0.0333 0.2887 0.0000 ( 10903 PWs)   bands (ev):

   -24.2375 -24.2169 -24.1290 -24.0417 -24.0077 -23.8246 -23.7896 -23.7877
   -23.7548 -23.7110 -11.7082  -6.9817  -4.1754  -3.7774  -1.4601   0.5746
     1.2323   1.6092

          k = 0.0333 0.3272 0.0000 ( 10919 PWs)   bands (ev):

   -24.2533 -24.2311 -24.1268 -24.0439 -24.0022 -23.8307 -23.7855 -23.7849
   -23.7381 -23.7002 -11.5634  -7.3825  -4.2999  -3.6313  -1.4827   0.2499
     1.4132   2.0818

          k = 0.0333 0.3657 0.0000 ( 10939 PWs)   bands (ev):

   -24.2675 -24.2438 -24.1246 -24.0459 -23.9966 -23.8370 -23.7835 -23.7824
   -23.7230 -23.6887 -11.4045  -7.7633  -4.4115  -3.4720  -1.5251  -0.0686
     1.6011   2.2580

          k = 0.0333 0.4041 0.0000 ( 10937 PWs)   bands (ev):

   -24.2798 -24.2548 -24.1227 -24.0477 -23.9910 -23.8431 -23.7817 -23.7812
   -23.7100 -23.6776 -11.2347  -8.1197  -4.5076  -3.3031  -1.5733  -0.3743
     1.8043   2.4489

          k = 0.0333 0.4426 0.0000 ( 10949 PWs)   bands (ev):

   -24.2899 -24.2638 -24.1209 -24.0492 -23.9859 -23.8487 -23.7809 -23.7802
   -23.6992 -23.6679 -11.0596  -8.4452  -4.5864  -3.1303  -1.6188  -0.6589
     2.0244   2.6532

          k = 0.0333 0.4811 0.0000 ( 10945 PWs)   bands (ev):

   -24.2976 -24.2707 -24.1196 -24.0504 -23.9815 -23.8534 -23.7810 -23.7790
   -23.6910 -23.6602 -10.8897  -8.7284  -4.6466  -2.9643  -1.6563  -0.9103
     2.2615   2.8651

          k = 0.0333 0.5196 0.0000 ( 10936 PWs)   bands (ev):

   -24.3028 -24.2754 -24.1186 -24.0513 -23.9782 -23.8569 -23.7811 -23.7782
   -23.6854 -23.6548 -10.7445  -8.9495  -4.6872  -2.8237  -1.6827  -1.1083
     2.5137   3.0703

          k = 0.0333 0.5581 0.0000 ( 10923 PWs)   bands (ev):

   -24.3054 -24.2778 -24.1181 -24.0517 -23.9765 -23.8588 -23.7812 -23.7777
   -23.6826 -23.6521 -10.6559  -9.0761  -4.7076  -2.7387  -1.6963  -1.2222
     2.7678   3.1097

          k = 0.0667 0.1155 0.0000 ( 10887 PWs)   bands (ev):

   -24.1679 -24.1500 -24.1384 -24.0335 -24.0254 -23.8364 -23.8303 -23.8047
   -23.7958 -23.7325 -12.1270  -5.1773  -4.2058  -3.6281  -2.0598   0.5448
     0.8529   1.1584

          k = 0.0667 0.1540 0.0000 ( 10895 PWs)   bands (ev):

   -24.1847 -24.1609 -24.1377 -24.0351 -24.0223 -23.8238 -23.8148 -23.8081
   -23.7942 -23.7306 -12.0609  -5.5847  -4.1377  -3.7601  -1.7588   0.5545
     0.9273   1.4514

          k = 0.0667 0.1925 0.0000 ( 10908 PWs)   bands (ev):

   -24.2029 -24.1739 -24.1363 -24.0370 -24.0185 -23.8124 -23.8108 -23.7981
   -23.7924 -23.7270 -11.9765  -6.0018  -4.0509  -3.9064  -1.5163   0.6352
     1.0242   1.3064

          k = 0.0667 0.2309 0.0000 ( 10902 PWs)   bands (ev):

   -24.2214 -24.1877 -24.1344 -24.0391 -24.0141 -23.8174 -23.7991 -23.7903
   -23.7814 -23.7209 -11.8738  -6.4184  -4.0568  -3.9459  -1.3600   0.8109
     1.0070   1.1480

          k = 0.0667 0.2694 0.0000 ( 10905 PWs)   bands (ev):

   -24.2394 -24.2016 -24.1323 -24.0413 -24.0090 -23.8230 -23.7901 -23.7881
   -23.7653 -23.7117 -11.7537  -6.8279  -4.2038  -3.8235  -1.2893   0.6946
     1.0644   1.3180

          k = 0.0667 0.3079 0.0000 ( 10916 PWs)   bands (ev):

   -24.2564 -24.2149 -24.1301 -24.0436 -24.0035 -23.8291 -23.7859 -23.7843
   -23.7501 -23.7001 -11.6168  -7.2260  -4.3420  -3.6850  -1.2808   0.3771
     1.3125   1.5948

          k = 0.0667 0.3464 0.0000 ( 10941 PWs)   bands (ev):

   -24.2719 -24.2272 -24.1279 -24.0457 -23.9978 -23.8355 -23.7837 -23.7813
   -23.7361 -23.6872 -11.4648  -7.6084  -4.4675  -3.5321  -1.3074   0.0612
     1.5174   1.9878

          k = 0.0667 0.3849 0.0000 ( 10947 PWs)   bands (ev):

   -24.2856 -24.2380 -24.1258 -24.0477 -23.9919 -23.8419 -23.7818 -23.7799
   -23.7235 -23.6746 -11.2998  -7.9710  -4.5773  -3.3675  -1.3492  -0.2467
     1.7190   2.3663

          k = 0.0667 0.4234 0.0000 ( 10947 PWs)   bands (ev):

   -24.2971 -24.2472 -24.1239 -24.0494 -23.9864 -23.8479 -23.7801 -23.7795
   -23.7128 -23.6632 -11.1262  -8.3081  -4.6695  -3.1955  -1.3938  -0.5391
     1.9325   2.5582

          k = 0.0667 0.4619 0.0000 ( 10949 PWs)   bands (ev):

   -24.3063 -24.2546 -24.1223 -24.0508 -23.9813 -23.8534 -23.7796 -23.7787
   -23.7042 -23.6537 -10.9514  -8.6110  -4.7425  -3.0240  -1.4340  -0.8064
     2.1620   2.7552

          k = 0.0667 0.5004 0.0000 ( 10935 PWs)   bands (ev):

   -24.3129 -24.2600 -24.1212 -24.0519 -23.9773 -23.8577 -23.7799 -23.7777
   -23.6979 -23.6467 -10.7897  -8.8648  -4.7953  -2.8667  -1.4651  -1.0331
     2.4073   2.9377

          k = 0.0667 0.5389 0.0000 ( 10927 PWs)   bands (ev):

   -24.3170 -24.2632 -24.1204 -24.0525 -23.9746 -23.8605 -23.7801 -23.7770
   -23.6941 -23.6424 -10.6670  -9.0430  -4.8272  -2.7485  -1.4846  -1.1933
     2.6642   3.0665

          k = 0.0667 0.5774 0.0000 ( 10922 PWs)   bands (ev):

   -24.3183 -24.2643 -24.1202 -24.0527 -23.9737 -23.8615 -23.7802 -23.7768
   -23.6928 -23.6409 -10.6194  -9.1092  -4.8379  -2.7029  -1.4912  -1.2530
     2.8635   3.0502

          k = 0.1000 0.1732 0.0000 ( 10879 PWs)   bands (ev):

   -24.2029 -24.1688 -24.1382 -24.0369 -24.0189 -23.8120 -23.8117 -23.8004
   -23.7925 -23.7272 -11.9858  -5.9548  -4.0605  -3.9137  -1.4859   0.5549
     1.0076   1.3383

          k = 0.1000 0.2117 0.0000 ( 10888 PWs)   bands (ev):

   -24.2219 -24.1790 -24.1374 -24.0390 -24.0146 -23.8168 -23.7995 -23.7904
   -23.7866 -23.7212 -11.8924  -6.3385  -4.0791  -3.9648  -1.2546   0.6196
     1.0649   1.1091

          k = 0.1000 0.2502 0.0000 ( 10902 PWs)   bands (ev):

   -24.2406 -24.1902 -24.1360 -24.0412 -24.0097 -23.8222 -23.7891 -23.7882
   -23.7737 -23.7117 -11.7810  -6.7254  -4.2446  -3.8513  -1.0991   0.7729
     0.7819   1.2343

          k = 0.1000 0.2887 0.0000 ( 10915 PWs)   bands (ev):

   -24.2586 -24.2017 -24.1342 -24.0435 -24.0042 -23.8283 -23.7860 -23.7822
   -23.7610 -23.6994 -11.6526  -7.1086  -4.4024  -3.7210  -1.0261   0.4706
     1.0438   1.3878

          k = 0.1000 0.3272 0.0000 ( 10926 PWs)   bands (ev):

   -24.2752 -24.2127 -24.1321 -24.0458 -23.9983 -23.8347 -23.7837 -23.7787
   -23.7485 -23.6854 -11.5080  -7.4828  -4.5472  -3.5754  -1.0144   0.1648
     1.3589   1.5951

          k = 0.1000 0.3657 0.0000 ( 10943 PWs)   bands (ev):

   -24.2901 -24.2227 -24.1301 -24.0480 -23.9922 -23.8414 -23.7816 -23.7773
   -23.7368 -23.6715 -11.3492  -7.8430  -4.6756  -3.4164  -1.0368  -0.1382
     1.6281   1.9263

          k = 0.1000 0.4041 0.0000 ( 10954 PWs)   bands (ev):

   -24.3030 -24.2316 -24.1282 -24.0499 -23.9862 -23.8479 -23.7797 -23.7770
   -23.7264 -23.6586 -11.1791  -8.1839  -4.7853  -3.2473  -1.0734  -0.4318
     1.8532   2.4754

          k = 0.1000 0.4426 0.0000 ( 10943 PWs)   bands (ev):

   -24.3135 -24.2389 -24.1265 -24.0515 -23.9805 -23.8540 -23.7781 -23.7773
   -23.7176 -23.6477 -11.0030  -8.4984  -4.8745  -3.0738  -1.1118  -0.7077
     2.0791   2.6528

          k = 0.1000 0.4811 0.0000 ( 10950 PWs)   bands (ev):

   -24.3216 -24.2445 -24.1251 -24.0528 -23.9756 -23.8592 -23.7777 -23.7769
   -23.7108 -23.6390 -10.8312  -8.7751  -4.9423  -2.9060  -1.1450  -0.9539
     2.3182   2.8008

          k = 0.1000 0.5196 0.0000 ( 10933 PWs)   bands (ev):

   -24.3271 -24.2484 -24.1242 -24.0537 -23.9719 -23.8631 -23.7781 -23.7760
   -23.7062 -23.6331 -10.6829  -8.9938  -4.9878  -2.7625  -1.1689  -1.1503
     2.5704   2.8870

          k = 0.1000 0.5581 0.0000 ( 10928 PWs)   bands (ev):

   -24.3298 -24.2503 -24.1237 -24.0541 -23.9699 -23.8652 -23.7784 -23.7756
   -23.7039 -23.6301 -10.5914  -9.1207  -5.0107  -2.6747  -1.2648  -1.1814
     2.8224   2.9167

          k = 0.1333 0.2309 0.0000 ( 10895 PWs)   bands (ev):

   -24.2410 -24.1858 -24.1378 -24.0412 -24.0099 -23.8220 -23.7883 -23.7879
   -23.7774 -23.7117 -11.7902  -6.6890  -4.2627  -3.8606  -1.0090   0.6513
     0.8003   1.2167

          k = 0.1333 0.2694 0.0000 ( 10904 PWs)   bands (ev):

   -24.2597 -24.1937 -24.1373 -24.0436 -24.0044 -23.8279 -23.7859 -23.7786
   -23.7693 -23.6989 -11.6705  -7.0449  -4.4435  -3.7391  -0.8236   0.5206
     0.7744   1.3469

          k = 0.1333 0.3079 0.0000 ( 10924 PWs)   bands (ev):

   -24.2772 -24.2021 -24.1362 -24.0460 -23.9985 -23.8344 -23.7836 -23.7743
   -23.7593 -23.6842 -11.5341  -7.3995  -4.6127  -3.6014  -0.7219   0.2324
     1.0106   1.4997

          k = 0.1333 0.3464 0.0000 ( 10940 PWs)   bands (ev):

   -24.2932 -24.2103 -24.1348 -24.0483 -23.9921 -23.8412 -23.7814 -23.7732
   -23.7486 -23.6692 -11.3823  -7.7472  -4.7651  -3.4492  -0.6906  -0.0582
     1.3400   1.6803

          k = 0.1333 0.3849 0.0000 ( 10954 PWs)   bands (ev):

   -24.3072 -24.2179 -24.1332 -24.0504 -23.9857 -23.8482 -23.7793 -23.7733
   -23.7387 -23.6552 -11.2173  -8.0827  -4.8973  -3.2848  -0.7000  -0.3453
     1.7037   1.9143

          k = 0.1333 0.4234 0.0000 ( 10952 PWs)   bands (ev):

   -24.3191 -24.2245 -24.1317 -24.0523 -23.9793 -23.8550 -23.7775 -23.7739
   -23.7301 -23.6428 -11.0429  -8.3997  -5.0073  -3.1124  -0.7264  -0.6218
     1.9967   2.2775

          k = 0.1333 0.4619 0.0000 ( 10949 PWs)   bands (ev):

   -24.3286 -24.2299 -24.1303 -24.0538 -23.9735 -23.8611 -23.7760 -23.7747
   -23.7231 -23.6327 -10.8661  -8.6892  -5.0938  -2.9390  -0.8785  -0.7562
     2.2434   2.6699

          k = 0.1333 0.5004 0.0000 ( 10947 PWs)   bands (ev):

   -24.3354 -24.2339 -24.1293 -24.0549 -23.9687 -23.8662 -23.7754 -23.7749
   -23.7180 -23.6252 -10.7005  -8.9363  -5.1560  -2.7780  -1.1001  -0.7813
     2.4922   2.7101

          k = 0.1333 0.5389 0.0000 ( 10954 PWs)   bands (ev):

   -24.3396 -24.2363 -24.1286 -24.0556 -23.9655 -23.8696 -23.7758 -23.7742
   -23.7148 -23.6207 -10.5725  -9.1136  -5.1935  -2.6548  -1.2603  -0.7978
     2.7151   2.7473

          k = 0.1333 0.5774 0.0000 ( 10953 PWs)   bands (ev):

   -24.3410 -24.2371 -24.1284 -24.0559 -23.9643 -23.8708 -23.7760 -23.7740
   -23.7138 -23.6191 -10.5219  -9.1806  -5.2060  -2.6064  -1.3210  -0.8035
     2.7137   2.9387

          k = 0.1667 0.2887 0.0000 ( 10925 PWs)   bands (ev):

   -24.2779 -24.1981 -24.1381 -24.0460 -23.9985 -23.8343 -23.7836 -23.7683
   -23.7675 -23.6838 -11.5428  -7.3701  -4.6377  -3.6101  -0.5800   0.2560
     0.8365   1.4825

          k = 0.1667 0.3272 0.0000 ( 10937 PWs)   bands (ev):

   -24.2947 -24.2030 -24.1381 -24.0485 -23.9920 -23.8413 -23.7812 -23.7676
   -23.7582 -23.6680 -11.3990  -7.6955  -4.8175  -3.4657  -0.4150  -0.0154
     1.0124   1.6403

          k = 0.1667 0.3657 0.0000 ( 10949 PWs)   bands (ev):

   -24.3098 -24.2081 -24.1377 -24.0508 -23.9852 -23.8485 -23.7789 -23.7684
   -23.7490 -23.6530 -11.2405  -8.0157  -4.9769  -3.3075  -0.3384  -0.2885
     1.3090   1.8196

          k = 0.1667 0.4041 0.0000 ( 10948 PWs)   bands (ev):

   -24.3229 -24.2129 -24.1369 -24.0529 -23.9783 -23.8559 -23.7769 -23.7695
   -23.7408 -23.6394 -11.0701  -8.3253  -5.1125  -3.1386  -0.5577  -0.3211
     1.6901   2.0229

          k = 0.1667 0.4426 0.0000 ( 10944 PWs)   bands (ev):

   -24.3336 -24.2171 -24.1360 -24.0547 -23.9716 -23.8629 -23.7752 -23.7707
   -23.7341 -23.6280 -10.8924  -8.6171  -5.2224  -2.9638  -0.8156  -0.3311
     2.0992   2.2662

          k = 0.1667 0.4811 0.0000 ( 10952 PWs)   bands (ev):

   -24.3418 -24.2204 -24.1352 -24.0561 -23.9656 -23.8692 -23.7739 -23.7718
   -23.7288 -23.6190 -10.7166  -8.8801  -5.3054  -2.7923  -1.0512  -0.3489
     2.4247   2.5574

          k = 0.1667 0.5196 0.0000 ( 10948 PWs)   bands (ev):

   -24.3474 -24.2228 -24.1346 -24.0570 -23.9609 -23.8740 -23.7730 -23.7726
   -23.7252 -23.6129 -10.5614  -9.0942  -5.3610  -2.6423  -1.2449  -0.3650
     2.5361   2.6825

          k = 0.1667 0.5581 0.0000 ( 10955 PWs)   bands (ev):

   -24.3502 -24.2240 -24.1342 -24.0575 -23.9583 -23.8767 -23.7730 -23.7725
   -23.7234 -23.6098 -10.4626  -9.2226  -5.3889  -2.5476  -1.3616  -0.3740
     2.5204   2.9214

          k = 0.2000 0.3464 0.0000 ( 10953 PWs)   bands (ev):

   -24.3107 -24.2043 -24.1396 -24.0510 -23.9850 -23.8487 -23.7788 -23.7647
   -23.7545 -23.6522 -11.2483  -7.9921  -5.0056  -3.3151  -0.2687  -0.1562
     1.1006   1.8039

          k = 0.2000 0.3849 0.0000 ( 10962 PWs)   bands (ev):

   -24.3248 -24.2060 -24.1405 -24.0533 -23.9777 -23.8564 -23.7766 -23.7651
   -23.7486 -23.6377 -11.0838  -8.2850  -5.1705  -3.1519  -0.5232   0.0063
     1.3198   1.9882

          k = 0.2000 0.4234 0.0000 ( 10965 PWs)   bands (ev):

   -24.3367 -24.2077 -24.1409 -24.0553 -23.9702 -23.8642 -23.7747 -23.7663
   -23.7428 -23.6251 -10.9087  -8.5686  -5.3081  -2.9793  -0.7736   0.0764
     1.6611   2.1915

          k = 0.2000 0.4619 0.0000 ( 10975 PWs)   bands (ev):

   -24.3462 -24.2094 -24.1411 -24.0570 -23.9631 -23.8716 -23.7731 -23.7676
   -23.7380 -23.6148 -10.7288  -8.8351  -5.4165  -2.8032  -1.0123   0.0948
     2.0753   2.4116

          k = 0.2000 0.5004 0.0000 ( 10975 PWs)   bands (ev):

   -24.3531 -24.2107 -24.1410 -24.0582 -23.9569 -23.8780 -23.7719 -23.7687
   -23.7345 -23.6073 -10.5559  -9.0710  -5.4944  -2.6354  -1.2258   0.0933
     2.3965   2.5132

          k = 0.2000 0.5389 0.0000 ( 10966 PWs)   bands (ev):

   -24.3573 -24.2116 -24.1410 -24.0589 -23.9525 -23.8825 -23.7712 -23.7694
   -23.7323 -23.6026 -10.4166  -9.2486  -5.5414  -2.5014  -1.3878   0.0879
     2.3611   2.8565

          k = 0.2000 0.5774 0.0000 ( 10963 PWs)   bands (ev):

   -24.3587 -24.2119 -24.1409 -24.0592 -23.9509 -23.8842 -23.7710 -23.7696
   -23.7315 -23.6011 -10.3591  -9.3190  -5.5570  -2.4464  -1.4522   0.0854
     2.3487   2.9665

          k = 0.2333 0.4041 0.0000 ( 10955 PWs)   bands (ev):

   -24.3377 -24.2041 -24.1430 -24.0555 -23.9697 -23.8646 -23.7745 -23.7638
   -23.7468 -23.6241 -10.9143  -8.5514  -5.3382  -2.9845  -0.7588   0.2891
     1.4267   2.1784

          k = 0.2333 0.4426 0.0000 ( 10963 PWs)   bands (ev):

   -24.3484 -24.2027 -24.1451 -24.0574 -23.9617 -23.8729 -23.7727 -23.7640
   -23.7443 -23.6127 -10.7353  -8.8101  -5.4757  -2.8090  -0.9906   0.4593
     1.6743   2.3869

          k = 0.2333 0.4811 0.0000 ( 10985 PWs)   bands (ev):

   -24.3565 -24.2016 -24.1467 -24.0589 -23.9540 -23.8808 -23.7713 -23.7647
   -23.7418 -23.6038 -10.5538  -9.0527  -5.5803  -2.6322  -1.2106   0.5322
     2.0353   2.3085

          k = 0.2333 0.5196 0.0000 ( 10976 PWs)   bands (ev):

   -24.3621 -24.2009 -24.1478 -24.0600 -23.9476 -23.8874 -23.7703 -23.7654
   -23.7399 -23.5977 -10.3857  -9.2622  -5.6505  -2.4699  -1.4024   0.5569
     2.2486   2.4287

          k = 0.2333 0.5581 0.0000 ( 10971 PWs)   bands (ev):

   -24.3648 -24.2005 -24.1483 -24.0605 -23.9437 -23.8914 -23.7698 -23.7658
   -23.7389 -23.5946 -10.2702  -9.3986  -5.6858  -2.3593  -1.5279   0.5635
     2.2173   2.7193

          k = 0.2667 0.4619 0.0000 ( 10971 PWs)   bands (ev):

   -24.3577 -24.1980 -24.1492 -24.0592 -23.9530 -23.8818 -23.7710 -23.7626
   -23.7450 -23.6026 -10.5532  -9.0458  -5.6099  -2.6314  -1.2048   0.7702
     1.7817   2.2783

          k = 0.2667 0.5004 0.0000 ( 10965 PWs)   bands (ev):

   -24.3645 -24.1939 -24.1527 -24.0605 -23.9447 -23.8903 -23.7698 -23.7620
   -23.7452 -23.5952 -10.3702  -9.2676  -5.7075  -2.4541  -1.4086   0.9518
     2.0209   2.1906

          k = 0.2667 0.5389 0.0000 ( 10970 PWs)   bands (ev):

   -24.3686 -24.1911 -24.1553 -24.0613 -23.9378 -23.8972 -23.7690 -23.7619
   -23.7450 -23.5907 -10.2076  -9.4537  -5.7667  -2.2978  -1.5809   1.0255
     2.1352   2.3159

          k = 0.2667 0.5774 0.0000 ( 10965 PWs)   bands (ev):

   -24.3700 -24.1900 -24.1562 -24.0616 -23.9349 -23.9001 -23.7688 -23.7619
   -23.7449 -23.5892 -10.1305  -9.5387  -5.7865  -2.2241  -1.6599   1.0439
     2.1168   2.4660

          k = 0.3000 0.5196 0.0000 ( 10971 PWs)   bands (ev):

   -24.3698 -24.1868 -24.1587 -24.0616 -23.9354 -23.8996 -23.7688 -23.7597
   -23.7480 -23.5893 -10.1845  -9.4740  -5.7942  -2.2750  -1.6005   1.2941
     2.0586   2.1075

          k = 0.3000 0.5581 0.0000 ( 10965 PWs)   bands (ev):

   -24.3725 -24.1815 -24.1634 -24.0621 -23.9278 -23.9073 -23.7683 -23.7582
   -23.7498 -23.5864 -10.0236  -9.6451  -5.8381  -2.1209  -1.7609   1.4744
     2.0648   2.1428

          k = 0.3333 0.5774 0.0000 ( 10977 PWs)   bands (ev):

   -24.3739 -24.1722 -24.1722 -24.0624 -23.9175 -23.9175 -23.7680 -23.7541
   -23.7541 -23.5849  -9.8355  -9.8355  -5.8622  -1.9413  -1.9413   1.8622
     1.8622   2.0408

     the Fermi energy is    -2.2974 ev

!    total energy              =    -326.39281369 Ry
     estimated scf accuracy    <       0.00000042 Ry
     smearing contrib. (-TS)   =       0.00023455 Ry
     internal energy E=F+TS    =    -326.39304824 Ry

     The total energy is F=E-TS. E is the sum of the following terms:
     one-electron contribution =    -882.82314253 Ry
     hartree contribution      =     448.52730443 Ry
     xc contribution           =     -95.07551391 Ry
     ewald contribution        =     202.97830376 Ry

     convergence has been achieved in   5 iterations

     Writing all to output data dir ../tmp/stanene.save/

     init_run     :     55.55s CPU     23.52s WALL (       1 calls)
     electrons    :   1224.20s CPU    514.46s WALL (       1 calls)

     Called by init_run:
     wfcinit      :     54.33s CPU     22.46s WALL (       1 calls)
     potinit      :      0.05s CPU      0.08s WALL (       1 calls)
     hinit0       :      0.44s CPU      0.46s WALL (       1 calls)

     Called by electrons:
     c_bands      :   1057.01s CPU    439.66s WALL (       5 calls)
     sum_band     :    155.48s CPU     69.00s WALL (       5 calls)
     v_of_rho     :      0.28s CPU      0.32s WALL (       6 calls)
     newd         :     12.04s CPU      5.89s WALL (       6 calls)
     mix_rho      :      0.03s CPU      0.03s WALL (       5 calls)

     Called by c_bands:
     init_us_2    :      9.50s CPU      2.86s WALL (    1001 calls)
     init_us_2:cp :      9.49s CPU      2.85s WALL (    1001 calls)
     cegterg      :   1035.50s CPU    433.03s WALL (     455 calls)

     Called by *egterg:
     cdiaghg      :     10.01s CPU      3.59s WALL (    2867 calls)
     h_psi        :    783.59s CPU    339.90s WALL (    2958 calls)
     s_psi        :     27.42s CPU      8.97s WALL (    2958 calls)
     g_psi        :      1.81s CPU      0.70s WALL (    2412 calls)

     Called by h_psi:
     h_psi:calbec :    525.68s CPU    254.67s WALL (    2958 calls)
     vloc_psi     :    229.77s CPU     75.72s WALL (    2958 calls)
     add_vuspsi   :     26.33s CPU      8.82s WALL (    2958 calls)

     General routines
     calbec       :    637.91s CPU    309.33s WALL (    3413 calls)
     fft          :      0.37s CPU      0.41s WALL (      66 calls)
     ffts         :      0.02s CPU      0.01s WALL (       5 calls)
     fftw         :    224.23s CPU     73.07s WALL (   64420 calls)

     Parallel routines

     PWSCF        :  21m20.09s CPU   8m58.40s WALL


   This run was terminated on:   0:13:11  20Jun2024            

=------------------------------------------------------------------------------=
   JOB DONE.
=------------------------------------------------------------------------------=
