### Running on host: handarmsi

     Program PWSCF v.7.2 starts on 19Jun2024 at 23:36:13 

     This program is part of the open-source Quantum ESPRESSO suite
     for quantum simulation of materials; please cite
         "P. Giannozzi et al., J. Phys.:Condens. Matter 21 395502 (2009);
         "P. Giannozzi et al., J. Phys.:Condens. Matter 29 465901 (2017);
         "P. Giannozzi et al., J. Chem. Phys. 152 154105 (2020);
          URL http://www.quantum-espresso.org", 
     in publications or presentations arising from this work. More details at
     http://www.quantum-espresso.org/quote

     Parallel version (MPI), running on     1 processors

     MPI processes distributed on     1 nodes
     6037 MiB available memory on the printing compute node when the environment starts

     Reading input from sn_scf_kpoints-10.in

     Current dimensions of program PWSCF are:
     Max number of different atomic species (ntypx) = 10
     Max number of k-points (npk) =  40000
     Max angular momentum in pseudopotentials (lmaxx) =  4

     Subspace diagonalization in iterative solution of the eigenvalue problem:
     a serial algorithm will be used


     G-vector sticks info
     --------------------
     sticks:   dense  smooth     PW     G-vecs:    dense   smooth      PW
     Sum         859     859    253                87375    87375   13377

     Using Slab Decomposition



     bravais-lattice index     =            4
     lattice parameter (alat)  =       8.8439  a.u.
     unit-cell volume          =    2560.0529 (a.u.)^3
     number of atoms/cell      =            2
     number of atomic types    =            1
     number of electrons       =        28.00
     number of Kohn-Sham states=           18
     kinetic-energy cutoff     =      40.0000  Ry
     charge density cutoff     =     160.0000  Ry
     scf convergence threshold =      1.0E-06
     mixing beta               =       0.7000
     number of iterations used =            8  plain     mixing
     Exchange-correlation= SLA  PW   PBE  PBE
                           (   1   4   3   4   0   0   0)

     celldm(1)=   8.843918  celldm(2)=   0.000000  celldm(3)=   4.273504
     celldm(4)=   0.000000  celldm(5)=   0.000000  celldm(6)=   0.000000

     crystal axes: (cart. coord. in units of alat)
               a(1) = (   1.000000   0.000000   0.000000 )  
               a(2) = (  -0.500000   0.866025   0.000000 )  
               a(3) = (   0.000000   0.000000   4.273504 )  

     reciprocal axes: (cart. coord. in units 2 pi/alat)
               b(1) = (  1.000000  0.577350 -0.000000 )  
               b(2) = (  0.000000  1.154701  0.000000 )  
               b(3) = (  0.000000 -0.000000  0.234000 )  


     PseudoPot. # 1 for Sn read from file:
     ../pseudo/Sn_pbe_v1.uspp.F.UPF
     MD5 check sum: 4cf58ce39ec5d5d420df3dd08604eb00
     Pseudo is Ultrasoft + core correction, Zval = 14.0
     Generated by new atomic code, or converted to UPF format
     Using radial grid of  891 points,  6 beta functions with: 
                l(1) =   0
                l(2) =   0
                l(3) =   1
                l(4) =   1
                l(5) =   2
                l(6) =   2
     Q(r) pseudized with  6 coefficients,  rinner =    1.200   1.200   1.200
                                                       1.200   1.200

     atomic species   valence    mass     pseudopotential
        Sn            14.00   118.71000     Sn( 1.00)

     24 Sym. Ops., with inversion, found



   Cartesian axes

     site n.     atom                  positions (alat units)
         1           Sn  tau(   1) = (   0.0000000   0.5773503   2.1367521  )
         2           Sn  tau(   2) = (   0.5000000   0.2886751   2.1367521  )

     number of k points=    14  Methfessel-Paxton smearing, width (Ry)=  0.0200
                       cart. coord. in units 2pi/alat
        k(    1) = (   0.0000000   0.0000000   0.0000000), wk =   0.0200000
        k(    2) = (   0.0000000   0.1154701   0.0000000), wk =   0.1200000
        k(    3) = (   0.0000000   0.2309401   0.0000000), wk =   0.1200000
        k(    4) = (   0.0000000   0.3464102   0.0000000), wk =   0.1200000
        k(    5) = (   0.0000000   0.4618802   0.0000000), wk =   0.1200000
        k(    6) = (   0.0000000  -0.5773503   0.0000000), wk =   0.0600000
        k(    7) = (   0.1000000   0.1732051   0.0000000), wk =   0.1200000
        k(    8) = (   0.1000000   0.2886751   0.0000000), wk =   0.2400000
        k(    9) = (   0.1000000   0.4041452   0.0000000), wk =   0.2400000
        k(   10) = (   0.1000000   0.5196152   0.0000000), wk =   0.2400000
        k(   11) = (   0.2000000   0.3464102   0.0000000), wk =   0.1200000
        k(   12) = (   0.2000000   0.4618802   0.0000000), wk =   0.2400000
        k(   13) = (   0.2000000   0.5773503   0.0000000), wk =   0.1200000
        k(   14) = (   0.3000000   0.5196152   0.0000000), wk =   0.1200000

     Dense  grid:    87375 G-vectors     FFT dimensions: (  36,  36, 160)

     Estimated max dynamical RAM per process >     353.30 MB

     Check: negative core charge=   -0.000001

     Initial potential from superposition of free atoms

     starting charge      25.9999, renormalised to      28.0000

     negative rho (up, down):  1.678E-02 0.000E+00
     Starting wfcs are   18 randomized atomic wfcs

     total cpu time spent up to now is        5.4 secs

     Self-consistent Calculation

     iteration #  1     ecut=    40.00 Ry     beta= 0.70
     Davidson diagonalization with overlap
     ethr =  1.00E-02,  avg # of iterations =  8.2

     negative rho (up, down):  1.078E-02 0.000E+00

     total cpu time spent up to now is       24.4 secs

     total energy              =    -325.42517269 Ry
     estimated scf accuracy    <       2.49976144 Ry

     iteration #  2     ecut=    40.00 Ry     beta= 0.70
     Davidson diagonalization with overlap
     ethr =  8.93E-03,  avg # of iterations =  2.1

     negative rho (up, down):  1.278E-02 0.000E+00

     total cpu time spent up to now is       39.4 secs

     total energy              =    -326.33430187 Ry
     estimated scf accuracy    <       0.37066118 Ry

     iteration #  3     ecut=    40.00 Ry     beta= 0.70
     Davidson diagonalization with overlap
     ethr =  1.32E-03,  avg # of iterations =  2.1

     negative rho (up, down):  1.427E-02 0.000E+00

     total cpu time spent up to now is       55.1 secs

     total energy              =    -326.39008454 Ry
     estimated scf accuracy    <       0.00573223 Ry

     iteration #  4     ecut=    40.00 Ry     beta= 0.70
     Davidson diagonalization with overlap
     ethr =  2.05E-05,  avg # of iterations =  9.4

     negative rho (up, down):  1.415E-02 0.000E+00

     total cpu time spent up to now is       77.2 secs

     total energy              =    -326.39209508 Ry
     estimated scf accuracy    <       0.00097303 Ry

     iteration #  5     ecut=    40.00 Ry     beta= 0.70
     Davidson diagonalization with overlap
     ethr =  3.48E-06,  avg # of iterations =  4.6

     negative rho (up, down):  1.418E-02 0.000E+00

     total cpu time spent up to now is       95.0 secs

     total energy              =    -326.39237487 Ry
     estimated scf accuracy    <       0.00004152 Ry

     iteration #  6     ecut=    40.00 Ry     beta= 0.70
     Davidson diagonalization with overlap
     ethr =  1.48E-07,  avg # of iterations =  2.0

     negative rho (up, down):  1.418E-02 0.000E+00

     total cpu time spent up to now is      109.7 secs

     End of self-consistent calculation

          k = 0.0000 0.0000 0.0000 ( 10895 PWs)   bands (ev):

   -24.1398 -24.1257 -24.1257 -24.0282 -24.0282 -23.8622 -23.8622 -23.7963
   -23.7963 -23.7318 -12.2404  -4.3235  -3.7099  -3.3756  -3.3756   0.6494
     0.6494   0.6868

          k = 0.0000 0.1155 0.0000 ( 10877 PWs)   bands (ev):

   -24.1540 -24.1496 -24.1329 -24.0304 -24.0243 -23.8402 -23.8357 -23.8007
   -23.7941 -23.7306 -12.1551  -4.9662  -4.2351  -3.5542  -2.2494   0.5834
     0.8248   1.0005

          k = 0.0000 0.2309 0.0000 ( 10895 PWs)   bands (ev):

   -24.2016 -24.1984 -24.1290 -24.0358 -24.0134 -23.8132 -23.8012 -23.7887
   -23.7802 -23.7218 -11.9017  -6.3273  -3.9745  -3.9389  -1.5716   0.9603
     1.0757   1.2096

          k = 0.0000 0.3464 0.0000 ( 10922 PWs)   bands (ev):

   -24.2488 -24.2448 -24.1226 -24.0422 -23.9976 -23.8309 -23.7824 -23.7817
   -23.7254 -23.6953 -11.4923  -7.5647  -4.3159  -3.5601  -1.5722   0.0988
     1.4996   2.1623

          k = 0.0000 0.4619 0.0000 ( 10942 PWs)   bands (ev):

   -24.2813 -24.2762 -24.1171 -24.0472 -23.9819 -23.8481 -23.7789 -23.7774
   -23.6873 -23.6669 -10.9800  -8.5870  -4.5728  -3.0527  -1.7115  -0.7843
     2.1330   2.7583

          k = 0.0000-0.5774 0.0000 ( 10920 PWs)   bands (ev):

   -24.2927 -24.2872 -24.1150 -24.0490 -23.9748 -23.8558 -23.7791 -23.7756
   -23.6738 -23.6558 -10.6516  -9.0875  -4.6627  -2.7351  -1.7714  -1.2324
     2.8360   3.2882

          k = 0.1000 0.1732 0.0000 ( 10879 PWs)   bands (ev):

   -24.2008 -24.1667 -24.1358 -24.0345 -24.0165 -23.8096 -23.8095 -23.7982
   -23.7901 -23.7247 -11.9856  -5.9545  -4.0604  -3.9137  -1.4856   0.5551
     1.0067   1.3384

          k = 0.1000 0.2887 0.0000 ( 10915 PWs)   bands (ev):

   -24.2564 -24.1995 -24.1318 -24.0412 -24.0018 -23.8259 -23.7835 -23.7799
   -23.7587 -23.6970 -11.6523  -7.1083  -4.4024  -3.7210  -1.0258   0.4707
     1.0441   1.3878

          k = 0.1000 0.4041 0.0000 ( 10954 PWs)   bands (ev):

   -24.3008 -24.2294 -24.1258 -24.0475 -23.9838 -23.8455 -23.7773 -23.7746
   -23.7241 -23.6564 -11.1788  -8.1836  -4.7853  -3.2473  -1.0730  -0.4317
     1.8526   2.4733

          k = 0.1000 0.5196 0.0000 ( 10933 PWs)   bands (ev):

   -24.3250 -24.2462 -24.1218 -24.0513 -23.9695 -23.8607 -23.7757 -23.7736
   -23.7039 -23.6309 -10.6827  -8.9936  -4.9879  -2.7625  -1.1685  -1.1502
     2.5697   2.8867

          k = 0.2000 0.3464 0.0000 ( 10953 PWs)   bands (ev):

   -24.3086 -24.2021 -24.1372 -24.0486 -23.9827 -23.8463 -23.7764 -23.7622
   -23.7522 -23.6500 -11.2480  -7.9919  -5.0056  -3.3151  -0.2686  -0.1561
     1.1011   1.8033

          k = 0.2000 0.4619 0.0000 ( 10975 PWs)   bands (ev):

   -24.3441 -24.2072 -24.1388 -24.0546 -23.9607 -23.8692 -23.7707 -23.7652
   -23.7357 -23.6125 -10.7285  -8.8349  -5.4165  -2.8031  -1.0122   0.0951
     2.0757   2.4110

          k = 0.2000 0.5774 0.0000 ( 10963 PWs)   bands (ev):

   -24.3565 -24.2097 -24.1386 -24.0568 -23.9485 -23.8818 -23.7685 -23.7672
   -23.7292 -23.5988 -10.3589  -9.3187  -5.5570  -2.4464  -1.4521   0.0857
     2.3487   2.9664

          k = 0.3000 0.5196 0.0000 ( 10971 PWs)   bands (ev):

   -24.3677 -24.1845 -24.1564 -24.0592 -23.9330 -23.8972 -23.7664 -23.7573
   -23.7456 -23.5871 -10.1842  -9.4737  -5.7942  -2.2749  -1.6005   1.2942
     2.0589   2.1074

     the Fermi energy is    -2.2840 ev

!    total energy              =    -326.39238155 Ry
     estimated scf accuracy    <       0.00000041 Ry
     smearing contrib. (-TS)   =      -0.00032705 Ry
     internal energy E=F+TS    =    -326.39205450 Ry

     The total energy is F=E-TS. E is the sum of the following terms:
     one-electron contribution =    -882.83898757 Ry
     hartree contribution      =     448.54584661 Ry
     xc contribution           =     -95.07721729 Ry
     ewald contribution        =     202.97830376 Ry

     convergence has been achieved in   6 iterations

     Writing all to output data dir ../tmp/stanene.save/

     init_run     :     11.66s CPU      5.33s WALL (       1 calls)
     electrons    :    245.02s CPU    104.36s WALL (       1 calls)

     Called by init_run:
     wfcinit      :      9.05s CPU      3.79s WALL (       1 calls)
     potinit      :      0.07s CPU      0.08s WALL (       1 calls)
     hinit0       :      0.47s CPU      0.48s WALL (       1 calls)

     Called by electrons:
     c_bands      :    195.95s CPU     80.92s WALL (       6 calls)
     sum_band     :     34.00s CPU     15.40s WALL (       6 calls)
     v_of_rho     :      0.32s CPU      0.34s WALL (       7 calls)
     newd         :     16.78s CPU      8.63s WALL (       7 calls)
     mix_rho      :      0.04s CPU      0.04s WALL (       6 calls)

     Called by c_bands:
     init_us_2    :      1.64s CPU      0.53s WALL (     182 calls)
     init_us_2:cp :      1.64s CPU      0.53s WALL (     182 calls)
     cegterg      :    191.47s CPU     79.53s WALL (      84 calls)

     Called by *egterg:
     cdiaghg      :      1.98s CPU      0.71s WALL (     483 calls)
     h_psi        :    149.28s CPU     64.43s WALL (     497 calls)
     s_psi        :      6.34s CPU      1.80s WALL (     497 calls)
     g_psi        :      0.35s CPU      0.12s WALL (     399 calls)

     Called by h_psi:
     h_psi:calbec :    103.11s CPU     48.92s WALL (     497 calls)
     vloc_psi     :     40.56s CPU     13.55s WALL (     497 calls)
     add_vuspsi   :      5.33s CPU      1.85s WALL (     497 calls)

     General routines
     calbec       :    127.03s CPU     60.88s WALL (     581 calls)
     fft          :      0.39s CPU      0.40s WALL (      77 calls)
     ffts         :      0.04s CPU      0.01s WALL (       6 calls)
     fftw         :     39.10s CPU     12.80s WALL (   11394 calls)

     Parallel routines

     PWSCF        :   4m16.93s CPU   1m49.83s WALL


   This run was terminated on:  23:38: 3  19Jun2024            

=------------------------------------------------------------------------------=
   JOB DONE.
=------------------------------------------------------------------------------=
