### Running on host: handarmsi

     Program PWSCF v.7.2 starts on 19Jun2024 at 23:56:30 

     This program is part of the open-source Quantum ESPRESSO suite
     for quantum simulation of materials; please cite
         "P. Giannozzi et al., J. Phys.:Condens. Matter 21 395502 (2009);
         "P. Giannozzi et al., J. Phys.:Condens. Matter 29 465901 (2017);
         "P. Giannozzi et al., J. Chem. Phys. 152 154105 (2020);
          URL http://www.quantum-espresso.org", 
     in publications or presentations arising from this work. More details at
     http://www.quantum-espresso.org/quote

     Parallel version (MPI), running on     1 processors

     MPI processes distributed on     1 nodes
     5754 MiB available memory on the printing compute node when the environment starts

     Reading input from sn_scf_kpoints-28.in

     Current dimensions of program PWSCF are:
     Max number of different atomic species (ntypx) = 10
     Max number of k-points (npk) =  40000
     Max angular momentum in pseudopotentials (lmaxx) =  4

     Subspace diagonalization in iterative solution of the eigenvalue problem:
     a serial algorithm will be used


     G-vector sticks info
     --------------------
     sticks:   dense  smooth     PW     G-vecs:    dense   smooth      PW
     Sum         859     859    253                87375    87375   13533

     Using Slab Decomposition



     bravais-lattice index     =            4
     lattice parameter (alat)  =       8.8439  a.u.
     unit-cell volume          =    2560.0529 (a.u.)^3
     number of atoms/cell      =            2
     number of atomic types    =            1
     number of electrons       =        28.00
     number of Kohn-Sham states=           18
     kinetic-energy cutoff     =      40.0000  Ry
     charge density cutoff     =     160.0000  Ry
     scf convergence threshold =      1.0E-06
     mixing beta               =       0.7000
     number of iterations used =            8  plain     mixing
     Exchange-correlation= SLA  PW   PBE  PBE
                           (   1   4   3   4   0   0   0)

     celldm(1)=   8.843918  celldm(2)=   0.000000  celldm(3)=   4.273504
     celldm(4)=   0.000000  celldm(5)=   0.000000  celldm(6)=   0.000000

     crystal axes: (cart. coord. in units of alat)
               a(1) = (   1.000000   0.000000   0.000000 )  
               a(2) = (  -0.500000   0.866025   0.000000 )  
               a(3) = (   0.000000   0.000000   4.273504 )  

     reciprocal axes: (cart. coord. in units 2 pi/alat)
               b(1) = (  1.000000  0.577350 -0.000000 )  
               b(2) = (  0.000000  1.154701  0.000000 )  
               b(3) = (  0.000000 -0.000000  0.234000 )  


     PseudoPot. # 1 for Sn read from file:
     ../pseudo/Sn_pbe_v1.uspp.F.UPF
     MD5 check sum: 4cf58ce39ec5d5d420df3dd08604eb00
     Pseudo is Ultrasoft + core correction, Zval = 14.0
     Generated by new atomic code, or converted to UPF format
     Using radial grid of  891 points,  6 beta functions with: 
                l(1) =   0
                l(2) =   0
                l(3) =   1
                l(4) =   1
                l(5) =   2
                l(6) =   2
     Q(r) pseudized with  6 coefficients,  rinner =    1.200   1.200   1.200
                                                       1.200   1.200

     atomic species   valence    mass     pseudopotential
        Sn            14.00   118.71000     Sn( 1.00)

     24 Sym. Ops., with inversion, found



   Cartesian axes

     site n.     atom                  positions (alat units)
         1           Sn  tau(   1) = (   0.0000000   0.5773503   2.1367521  )
         2           Sn  tau(   2) = (   0.5000000   0.2886751   2.1367521  )

     number of k points=    80  Methfessel-Paxton smearing, width (Ry)=  0.0200
                       cart. coord. in units 2pi/alat
        k(    1) = (   0.0000000   0.0000000   0.0000000), wk =   0.0025510
        k(    2) = (   0.0000000   0.0412393   0.0000000), wk =   0.0153061
        k(    3) = (   0.0000000   0.0824786   0.0000000), wk =   0.0153061
        k(    4) = (   0.0000000   0.1237179   0.0000000), wk =   0.0153061
        k(    5) = (   0.0000000   0.1649572   0.0000000), wk =   0.0153061
        k(    6) = (   0.0000000   0.2061965   0.0000000), wk =   0.0153061
        k(    7) = (   0.0000000   0.2474358   0.0000000), wk =   0.0153061
        k(    8) = (   0.0000000   0.2886751   0.0000000), wk =   0.0153061
        k(    9) = (   0.0000000   0.3299144   0.0000000), wk =   0.0153061
        k(   10) = (   0.0000000   0.3711537   0.0000000), wk =   0.0153061
        k(   11) = (   0.0000000   0.4123930   0.0000000), wk =   0.0153061
        k(   12) = (   0.0000000   0.4536324   0.0000000), wk =   0.0153061
        k(   13) = (   0.0000000   0.4948717   0.0000000), wk =   0.0153061
        k(   14) = (   0.0000000   0.5361110   0.0000000), wk =   0.0153061
        k(   15) = (   0.0000000  -0.5773503   0.0000000), wk =   0.0076531
        k(   16) = (   0.0357143   0.0618590   0.0000000), wk =   0.0153061
        k(   17) = (   0.0357143   0.1030983   0.0000000), wk =   0.0306122
        k(   18) = (   0.0357143   0.1443376   0.0000000), wk =   0.0306122
        k(   19) = (   0.0357143   0.1855769   0.0000000), wk =   0.0306122
        k(   20) = (   0.0357143   0.2268162   0.0000000), wk =   0.0306122
        k(   21) = (   0.0357143   0.2680555   0.0000000), wk =   0.0306122
        k(   22) = (   0.0357143   0.3092948   0.0000000), wk =   0.0306122
        k(   23) = (   0.0357143   0.3505341   0.0000000), wk =   0.0306122
        k(   24) = (   0.0357143   0.3917734   0.0000000), wk =   0.0306122
        k(   25) = (   0.0357143   0.4330127   0.0000000), wk =   0.0306122
        k(   26) = (   0.0357143   0.4742520   0.0000000), wk =   0.0306122
        k(   27) = (   0.0357143   0.5154913   0.0000000), wk =   0.0306122
        k(   28) = (   0.0357143   0.5567306   0.0000000), wk =   0.0306122
        k(   29) = (   0.0714286   0.1237179   0.0000000), wk =   0.0153061
        k(   30) = (   0.0714286   0.1649572   0.0000000), wk =   0.0306122
        k(   31) = (   0.0714286   0.2061965   0.0000000), wk =   0.0306122
        k(   32) = (   0.0714286   0.2474358   0.0000000), wk =   0.0306122
        k(   33) = (   0.0714286   0.2886751   0.0000000), wk =   0.0306122
        k(   34) = (   0.0714286   0.3299144   0.0000000), wk =   0.0306122
        k(   35) = (   0.0714286   0.3711537   0.0000000), wk =   0.0306122
        k(   36) = (   0.0714286   0.4123930   0.0000000), wk =   0.0306122
        k(   37) = (   0.0714286   0.4536324   0.0000000), wk =   0.0306122
        k(   38) = (   0.0714286   0.4948717   0.0000000), wk =   0.0306122
        k(   39) = (   0.0714286   0.5361110   0.0000000), wk =   0.0306122
        k(   40) = (   0.0714286   0.5773503   0.0000000), wk =   0.0153061
        k(   41) = (   0.1071429   0.1855769   0.0000000), wk =   0.0153061
        k(   42) = (   0.1071429   0.2268162   0.0000000), wk =   0.0306122
        k(   43) = (   0.1071429   0.2680555   0.0000000), wk =   0.0306122
        k(   44) = (   0.1071429   0.3092948   0.0000000), wk =   0.0306122
        k(   45) = (   0.1071429   0.3505341   0.0000000), wk =   0.0306122
        k(   46) = (   0.1071429   0.3917734   0.0000000), wk =   0.0306122
        k(   47) = (   0.1071429   0.4330127   0.0000000), wk =   0.0306122
        k(   48) = (   0.1071429   0.4742520   0.0000000), wk =   0.0306122
        k(   49) = (   0.1071429   0.5154913   0.0000000), wk =   0.0306122
        k(   50) = (   0.1071429   0.5567306   0.0000000), wk =   0.0306122
        k(   51) = (   0.1428571   0.2474358   0.0000000), wk =   0.0153061
        k(   52) = (   0.1428571   0.2886751   0.0000000), wk =   0.0306122
        k(   53) = (   0.1428571   0.3299144   0.0000000), wk =   0.0306122
        k(   54) = (   0.1428571   0.3711537   0.0000000), wk =   0.0306122
        k(   55) = (   0.1428571   0.4123930   0.0000000), wk =   0.0306122
        k(   56) = (   0.1428571   0.4536324   0.0000000), wk =   0.0306122
        k(   57) = (   0.1428571   0.4948717   0.0000000), wk =   0.0306122
        k(   58) = (   0.1428571   0.5361110   0.0000000), wk =   0.0306122
        k(   59) = (   0.1428571   0.5773503   0.0000000), wk =   0.0153061
        k(   60) = (   0.1785714   0.3092948   0.0000000), wk =   0.0153061
        k(   61) = (   0.1785714   0.3505341   0.0000000), wk =   0.0306122
        k(   62) = (   0.1785714   0.3917734   0.0000000), wk =   0.0306122
        k(   63) = (   0.1785714   0.4330127   0.0000000), wk =   0.0306122
        k(   64) = (   0.1785714   0.4742520   0.0000000), wk =   0.0306122
        k(   65) = (   0.1785714   0.5154913   0.0000000), wk =   0.0306122
        k(   66) = (   0.1785714   0.5567306   0.0000000), wk =   0.0306122
        k(   67) = (   0.2142857   0.3711537   0.0000000), wk =   0.0153061
        k(   68) = (   0.2142857   0.4123930   0.0000000), wk =   0.0306122
        k(   69) = (   0.2142857   0.4536324   0.0000000), wk =   0.0306122
        k(   70) = (   0.2142857   0.4948717   0.0000000), wk =   0.0306122
        k(   71) = (   0.2142857   0.5361110   0.0000000), wk =   0.0306122
        k(   72) = (   0.2142857   0.5773503   0.0000000), wk =   0.0153061
        k(   73) = (   0.2500000   0.4330127   0.0000000), wk =   0.0153061
        k(   74) = (   0.2500000   0.4742520   0.0000000), wk =   0.0306122
        k(   75) = (   0.2500000   0.5154913   0.0000000), wk =   0.0306122
        k(   76) = (   0.2500000   0.5567306   0.0000000), wk =   0.0306122
        k(   77) = (   0.2857143   0.4948717   0.0000000), wk =   0.0153061
        k(   78) = (   0.2857143   0.5361110   0.0000000), wk =   0.0306122
        k(   79) = (   0.2857143   0.5773503   0.0000000), wk =   0.0153061
        k(   80) = (   0.3214286   0.5567306   0.0000000), wk =   0.0153061

     Dense  grid:    87375 G-vectors     FFT dimensions: (  36,  36, 160)

     Estimated max dynamical RAM per process >     551.56 MB

     Check: negative core charge=   -0.000001

     Initial potential from superposition of free atoms

     starting charge      25.9999, renormalised to      28.0000

     negative rho (up, down):  1.678E-02 0.000E+00
     Starting wfcs are   18 randomized atomic wfcs

     total cpu time spent up to now is       20.2 secs

     Self-consistent Calculation

     iteration #  1     ecut=    40.00 Ry     beta= 0.70
     Davidson diagonalization with overlap
     ethr =  1.00E-02,  avg # of iterations =  8.0

     negative rho (up, down):  1.016E-02 0.000E+00

     total cpu time spent up to now is      134.0 secs

     total energy              =    -325.42297245 Ry
     estimated scf accuracy    <       2.50245223 Ry

     iteration #  2     ecut=    40.00 Ry     beta= 0.70
     Davidson diagonalization with overlap
     ethr =  8.94E-03,  avg # of iterations =  2.1

     negative rho (up, down):  1.242E-02 0.000E+00

     total cpu time spent up to now is      201.8 secs

     total energy              =    -326.33239953 Ry
     estimated scf accuracy    <       0.37506667 Ry

     iteration #  3     ecut=    40.00 Ry     beta= 0.70
     Davidson diagonalization with overlap
     ethr =  1.34E-03,  avg # of iterations =  2.1

     negative rho (up, down):  1.417E-02 0.000E+00

     total cpu time spent up to now is      266.9 secs

     total energy              =    -326.39069106 Ry
     estimated scf accuracy    <       0.00553661 Ry

     iteration #  4     ecut=    40.00 Ry     beta= 0.70
     Davidson diagonalization with overlap
     ethr =  1.98E-05,  avg # of iterations =  9.7

     negative rho (up, down):  1.419E-02 0.000E+00

     total cpu time spent up to now is      383.9 secs

     total energy              =    -326.39265849 Ry
     estimated scf accuracy    <       0.00070261 Ry

     iteration #  5     ecut=    40.00 Ry     beta= 0.70
     Davidson diagonalization with overlap
     ethr =  2.51E-06,  avg # of iterations =  4.7

     negative rho (up, down):  1.416E-02 0.000E+00

     total cpu time spent up to now is      461.7 secs

     End of self-consistent calculation

          k = 0.0000 0.0000 0.0000 ( 10895 PWs)   bands (ev):

   -24.1425 -24.1282 -24.1282 -24.0309 -24.0309 -23.8647 -23.8647 -23.7990
   -23.7990 -23.7346 -12.2407  -4.3235  -3.7108  -3.3757  -3.3757   0.6494
     0.6494   0.6875

          k = 0.0000 0.0412 0.0000 ( 10907 PWs)   bands (ev):

   -24.1432 -24.1316 -24.1305 -24.0312 -24.0304 -23.8615 -23.8609 -23.7996
   -23.7987 -23.7345 -12.2298  -4.3122  -4.0738  -3.4005  -3.0261   0.6209
     0.6963   0.7178

          k = 0.0000 0.0825 0.0000 ( 10887 PWs)   bands (ev):

   -24.1477 -24.1411 -24.1346 -24.0320 -24.0289 -23.8527 -23.8504 -23.8013
   -23.7979 -23.7341 -12.1972  -4.5671  -4.2783  -3.4713  -2.5784   0.5875
     0.7702   0.8330

          k = 0.0000 0.1237 0.0000 ( 10879 PWs)   bands (ev):

   -24.1594 -24.1552 -24.1355 -24.0334 -24.0265 -23.8400 -23.8348 -23.8041
   -23.7966 -23.7332 -12.1428  -5.0664  -4.2221  -3.5780  -2.1745   0.5880
     0.8413   1.0496

          k = 0.0000 0.1650 0.0000 ( 10909 PWs)   bands (ev):

   -24.1754 -24.1720 -24.1346 -24.0351 -24.0231 -23.8255 -23.8158 -23.8080
   -23.7948 -23.7313 -12.0671  -5.5604  -4.1439  -3.7086  -1.8532   0.6619
     0.9390   1.3336

          k = 0.0000 0.2062 0.0000 ( 10905 PWs)   bands (ev):

   -24.1932 -24.1900 -24.1329 -24.0372 -24.0189 -23.8127 -23.8113 -23.7953
   -23.7928 -23.7278 -11.9701  -6.0440  -4.0443  -3.8515  -1.6433   0.8310
     1.0808   1.2787

          k = 0.0000 0.2474 0.0000 ( 10911 PWs)   bands (ev):

   -24.2114 -24.2081 -24.1308 -24.0394 -24.0140 -23.8183 -23.7994 -23.7905
   -23.7744 -23.7218 -11.8526  -6.5138  -3.9970  -3.9241  -1.5442   0.9377
     1.0444   1.3251

          k = 0.0000 0.2887 0.0000 ( 10909 PWs)   bands (ev):

   -24.2290 -24.2254 -24.1285 -24.0417 -24.0085 -23.8244 -23.7909 -23.7882
   -23.7540 -23.7132 -11.7153  -6.9664  -4.1376  -3.7846  -1.5264   0.5872
     1.2347   1.7106

          k = 0.0000 0.3299 0.0000 ( 10909 PWs)   bands (ev):

   -24.2453 -24.2414 -24.1262 -24.0440 -24.0027 -23.8309 -23.7860 -23.7857
   -23.7351 -23.7025 -11.5596  -7.3987  -4.2678  -3.6274  -1.5547   0.2370
     1.4220   2.0903

          k = 0.0000 0.3712 0.0000 ( 10948 PWs)   bands (ev):

   -24.2598 -24.2555 -24.1239 -24.0462 -23.9967 -23.8376 -23.7838 -23.7831
   -23.7181 -23.6911 -11.3879  -7.8068  -4.3834  -3.4554  -1.6031  -0.1052
     1.6236   2.2830

          k = 0.0000 0.4124 0.0000 ( 10942 PWs)   bands (ev):

   -24.2722 -24.2675 -24.1218 -24.0480 -23.9908 -23.8440 -23.7820 -23.7820
   -23.7035 -23.6803 -11.2045  -8.1852  -4.4815  -3.2732  -1.6560  -0.4309
     1.8432   2.4876

          k = 0.0000 0.4536 0.0000 ( 10942 PWs)   bands (ev):

   -24.2821 -24.2771 -24.1201 -24.0496 -23.9856 -23.8497 -23.7817 -23.7804
   -23.6919 -23.6711 -11.0171  -8.5252  -4.5597  -3.0888  -1.7037  -0.7293
     2.0832   2.7123

          k = 0.0000 0.4949 0.0000 ( 10938 PWs)   bands (ev):

   -24.2893 -24.2840 -24.1187 -24.0508 -23.9813 -23.8544 -23.7817 -23.7793
   -23.6833 -23.6642 -10.8412  -8.8107  -4.6166  -2.9173  -1.7408  -0.9835
     2.3428   2.9461

          k = 0.0000 0.5361 0.0000 ( 10936 PWs)   bands (ev):

   -24.2937 -24.2882 -24.1179 -24.0515 -23.9785 -23.8574 -23.7818 -23.7785
   -23.6781 -23.6599 -10.7054  -9.0124  -4.6512  -2.7863  -1.7640  -1.1646
     2.6175   3.1678

          k = 0.0000-0.5774 0.0000 ( 10920 PWs)   bands (ev):

   -24.2952 -24.2896 -24.1176 -24.0517 -23.9775 -23.8585 -23.7819 -23.7783
   -23.6763 -23.6584 -10.6520  -9.0878  -4.6628  -2.7352  -1.7719  -1.2325
     2.8365   3.0256

          k = 0.0357 0.0619 0.0000 ( 10895 PWs)   bands (ev):

   -24.1463 -24.1359 -24.1354 -24.0318 -24.0294 -23.8556 -23.8538 -23.8007
   -23.7982 -23.7342 -12.2080  -4.4330  -4.2896  -3.4504  -2.6938   0.5906
     0.7536   0.7927

          k = 0.0357 0.1031 0.0000 ( 10881 PWs)   bands (ev):

   -24.1570 -24.1457 -24.1372 -24.0329 -24.0274 -23.8449 -23.8408 -23.8030
   -23.7971 -23.7336 -12.1646  -4.8880  -4.2446  -3.5442  -2.3011   0.5649
     0.8105   0.9813

          k = 0.0357 0.1443 0.0000 ( 10895 PWs)   bands (ev):

   -24.1731 -24.1594 -24.1365 -24.0344 -24.0245 -23.8312 -23.8237 -23.8064
   -23.7955 -23.7321 -12.0995  -5.3635  -4.1774  -3.6691  -1.9455   0.5846
     0.8894   1.2481

          k = 0.0357 0.1856 0.0000 ( 10906 PWs)   bands (ev):

   -24.1916 -24.1753 -24.1349 -24.0364 -24.0206 -23.8168 -23.8107 -23.8044
   -23.7936 -23.7293 -12.0131  -5.8394  -4.0884  -3.8120  -1.6755   0.6906
     0.9966   1.4177

          k = 0.0357 0.2268 0.0000 ( 10909 PWs)   bands (ev):

   -24.2107 -24.1920 -24.1329 -24.0385 -24.0160 -23.8159 -23.8037 -23.7914
   -23.7844 -23.7242 -11.9058  -6.3076  -3.9785  -3.9618  -1.5155   0.8949
     1.0901   1.1496

          k = 0.0357 0.2681 0.0000 ( 10907 PWs)   bands (ev):

   -24.2295 -24.2086 -24.1306 -24.0409 -24.0108 -23.8218 -23.7935 -23.7891
   -23.7647 -23.7162 -11.7783  -6.7627  -4.1098  -3.8485  -1.4545   0.7466
     1.1289   1.4106

          k = 0.0357 0.3093 0.0000 ( 10916 PWs)   bands (ev):

   -24.2473 -24.2243 -24.1282 -24.0432 -24.0050 -23.8282 -23.7869 -23.7868
   -23.7462 -23.7054 -11.6316  -7.2009  -4.2492  -3.6999  -1.4589   0.3985
     1.3291   1.8088

          k = 0.0357 0.3505 0.0000 ( 10925 PWs)   bands (ev):

   -24.2633 -24.2385 -24.1259 -24.0455 -23.9990 -23.8349 -23.7846 -23.7834
   -23.7294 -23.6931 -11.4676  -7.6181  -4.3754  -3.5350  -1.4971   0.0540
     1.5264   2.1883

          k = 0.0357 0.3918 0.0000 ( 10945 PWs)   bands (ev):

   -24.2772 -24.2509 -24.1237 -24.0475 -23.9930 -23.8415 -23.7825 -23.7817
   -23.7147 -23.6809 -11.2893  -8.0095  -4.4849  -3.3571  -1.5474  -0.2791
     1.7382   2.3867

          k = 0.0357 0.4330 0.0000 ( 10947 PWs)   bands (ev):

   -24.2888 -24.2612 -24.1217 -24.0492 -23.9873 -23.8478 -23.7812 -23.7808
   -23.7026 -23.6699 -11.1025  -8.3683  -4.5750  -3.1724  -1.5976  -0.5913
     1.9688   2.6014

          k = 0.0357 0.4743 0.0000 ( 10941 PWs)   bands (ev):

   -24.2976 -24.2690 -24.1202 -24.0506 -23.9824 -23.8531 -23.7812 -23.7794
   -23.6932 -23.6611 -10.9180  -8.6826  -4.6440  -2.9917  -1.6399  -0.8694
     2.2190   2.8275

          k = 0.0357 0.5155 0.0000 ( 10930 PWs)   bands (ev):

   -24.3036 -24.2744 -24.1191 -24.0516 -23.9787 -23.8571 -23.7813 -23.7785
   -23.6869 -23.6549 -10.7570  -8.9306  -4.6906  -2.8356  -1.6700  -1.0913
     2.4872   3.0466

          k = 0.0357 0.5567 0.0000 ( 10921 PWs)   bands (ev):

   -24.3066 -24.2771 -24.1185 -24.0520 -23.9767 -23.8592 -23.7815 -23.7780
   -23.6837 -23.6518 -10.6566  -9.0745  -4.7141  -2.7392  -1.6855  -1.2208
     2.7605   3.1177

          k = 0.0714 0.1237 0.0000 ( 10899 PWs)   bands (ev):

   -24.1728 -24.1529 -24.1387 -24.0342 -24.0249 -23.8333 -23.8265 -23.8059
   -23.7957 -23.7324 -12.1103  -5.2906  -4.1885  -3.6637  -1.9708   0.5415
     0.8716   1.2352

          k = 0.0714 0.1650 0.0000 ( 10905 PWs)   bands (ev):

   -24.1914 -24.1647 -24.1379 -24.0360 -24.0214 -23.8197 -23.8098 -23.8096
   -23.7939 -23.7299 -12.0346  -5.7243  -4.1106  -3.8120  -1.6617   0.5620
     0.9565   1.4934

          k = 0.0714 0.2062 0.0000 ( 10893 PWs)   bands (ev):

   -24.2112 -24.1786 -24.1363 -24.0381 -24.0171 -23.8146 -23.8061 -23.7920
   -23.7918 -23.7251 -11.9378  -6.1670  -4.0112  -3.9734  -1.4263   0.6717
     1.0672   1.1901

          k = 0.0714 0.2474 0.0000 ( 10908 PWs)   bands (ev):

   -24.2310 -24.1932 -24.1342 -24.0405 -24.0120 -23.8203 -23.7945 -23.7895
   -23.7747 -23.7170 -11.8204  -6.6073  -4.1361  -3.8913  -1.2916   0.8647
     0.8920   1.2115

          k = 0.0714 0.2887 0.0000 ( 10902 PWs)   bands (ev):

   -24.2499 -24.2076 -24.1319 -24.0429 -24.0064 -23.8266 -23.7871 -23.7866
   -23.7584 -23.7056 -11.6833  -7.0381  -4.2917  -3.7521  -1.2463   0.5283
     1.1810   1.4219

          k = 0.0714 0.3299 0.0000 ( 10926 PWs)   bands (ev):

   -24.2674 -24.2210 -24.1295 -24.0453 -24.0003 -23.8334 -23.7848 -23.7822
   -23.7431 -23.6920 -11.5277  -7.4541  -4.4345  -3.5952  -1.2578   0.1897
     1.4311   1.7743

          k = 0.0714 0.3712 0.0000 ( 10941 PWs)   bands (ev):

   -24.2829 -24.2331 -24.1272 -24.0475 -23.9940 -23.8402 -23.7826 -23.7802
   -23.7292 -23.6780 -11.3560  -7.8499  -4.5604  -3.4233  -1.2967  -0.1431
     1.6487   2.2251

          k = 0.0714 0.4124 0.0000 ( 10944 PWs)   bands (ev):

   -24.2961 -24.2434 -24.1251 -24.0494 -23.9878 -23.8469 -23.7807 -23.7796
   -23.7173 -23.6652 -11.1723  -8.2194  -4.6664  -3.2410  -1.3437  -0.4617
     1.8738   2.5043

          k = 0.0714 0.4536 0.0000 ( 10947 PWs)   bands (ev):

   -24.3066 -24.2517 -24.1234 -24.0510 -23.9822 -23.8530 -23.7796 -23.7791
   -23.7076 -23.6544 -10.9843  -8.5535  -4.7506  -3.0560  -1.3880  -0.7554
     2.1156   2.7126

          k = 0.0714 0.4949 0.0000 ( 10941 PWs)   bands (ev):

   -24.3142 -24.2577 -24.1220 -24.0522 -23.9776 -23.8579 -23.7799 -23.7779
   -23.7005 -23.6463 -10.8069  -8.8359  -4.8117  -2.8832  -1.4230  -1.0072
     2.3757   2.9070

          k = 0.0714 0.5361 0.0000 ( 10921 PWs)   bands (ev):

   -24.3189 -24.2614 -24.1212 -24.0530 -23.9746 -23.8612 -23.7802 -23.7772
   -23.6961 -23.6413 -10.6692  -9.0370  -4.8486  -2.7504  -1.4452  -1.1880
     2.6499   3.0412

          k = 0.0714 0.5774 0.0000 ( 10928 PWs)   bands (ev):

   -24.3204 -24.2627 -24.1209 -24.0532 -23.9735 -23.8623 -23.7803 -23.7770
   -23.6947 -23.6396 -10.6147  -9.1126  -4.8610  -2.6982  -1.4527  -1.2562
     2.8670   3.0536

          k = 0.1071 0.1856 0.0000 ( 10883 PWs)   bands (ev):

   -24.2114 -24.1731 -24.1384 -24.0380 -24.0174 -23.8143 -23.8067 -23.7948
   -23.7919 -23.7253 -11.9485  -6.1163  -4.0222  -3.9846  -1.3772   0.5678
     1.0474   1.2253

          k = 0.1071 0.2268 0.0000 ( 10890 PWs)   bands (ev):

   -24.2317 -24.1836 -24.1376 -24.0404 -24.0126 -23.8197 -23.7941 -23.7897
   -23.7812 -23.7172 -11.8416  -6.5215  -4.1669  -3.9128  -1.1451   0.6544
     0.9284   1.1638

          k = 0.1071 0.2681 0.0000 ( 10906 PWs)   bands (ev):

   -24.2516 -24.1951 -24.1361 -24.0428 -24.0070 -23.8258 -23.7872 -23.7844
   -23.7686 -23.7052 -11.7144  -6.9286  -4.3456  -3.7835  -1.0037   0.6139
     0.8586   1.3072

          k = 0.1071 0.3093 0.0000 ( 10928 PWs)   bands (ev):

   -24.2702 -24.2066 -24.1341 -24.0453 -24.0008 -23.8326 -23.7848 -23.7792
   -23.7556 -23.6906 -11.5680  -7.3297  -4.5119  -3.6356  -0.9512   0.2908
     1.1708   1.4856

          k = 0.1071 0.3505 0.0000 ( 10948 PWs)   bands (ev):

   -24.2871 -24.2174 -24.1320 -24.0477 -23.9943 -23.8397 -23.7825 -23.7771
   -23.7430 -23.6752 -11.4041  -7.7186  -4.6606  -3.4711  -0.9564  -0.0330
     1.5154   1.7423

          k = 0.1071 0.3918 0.0000 ( 10948 PWs)   bands (ev):

   -24.3017 -24.2270 -24.1299 -24.0499 -23.9877 -23.8469 -23.7803 -23.7766
   -23.7315 -23.6608 -11.2257  -8.0888  -4.7881  -3.2933  -0.9885  -0.3495
     1.7858   2.1492

          k = 0.1071 0.4330 0.0000 ( 10948 PWs)   bands (ev):

   -24.3138 -24.2350 -24.1281 -24.0518 -23.9813 -23.8536 -23.7785 -23.7769
   -23.7218 -23.6483 -11.0380  -8.4326  -4.8921  -3.1079  -1.0281  -0.6498
     2.0303   2.6100

          k = 0.1071 0.4743 0.0000 ( 10954 PWs)   bands (ev):

   -24.3231 -24.2413 -24.1266 -24.0532 -23.9758 -23.8596 -23.7774 -23.7771
   -23.7143 -23.6384 -10.8514  -8.7377  -4.9712  -2.9253  -1.0643  -0.9206
     2.2837   2.7638

          k = 0.1071 0.5155 0.0000 ( 10937 PWs)   bands (ev):

   -24.3294 -24.2455 -24.1255 -24.0543 -23.9715 -23.8641 -23.7779 -23.7761
   -23.7091 -23.6316 -10.6868  -8.9820  -5.0244  -2.7659  -1.1399  -1.0911
     2.5524   2.8480

          k = 0.1071 0.5567 0.0000 ( 10926 PWs)   bands (ev):

   -24.3325 -24.2477 -24.1249 -24.0548 -23.9692 -23.8665 -23.7782 -23.7756
   -23.7065 -23.6282 -10.5827  -9.1262  -5.0511  -2.6659  -1.2701  -1.1051
     2.8233   2.8735

          k = 0.1429 0.2474 0.0000 ( 10919 PWs)   bands (ev):

   -24.2521 -24.1902 -24.1381 -24.0428 -24.0071 -23.8256 -23.7873 -23.7821
   -23.7737 -23.7050 -11.7248  -6.8895  -4.3688  -3.7940  -0.8839   0.6439
     0.6954   1.2870

          k = 0.1429 0.2887 0.0000 ( 10917 PWs)   bands (ev):

   -24.2717 -24.1979 -24.1377 -24.0454 -24.0010 -23.8323 -23.7847 -23.7741
   -23.7658 -23.6897 -11.5882  -7.2617  -4.5634  -3.6558  -0.6972   0.3453
     0.8488   1.4355

          k = 0.1429 0.3299 0.0000 ( 10926 PWs)   bands (ev):

   -24.2896 -24.2058 -24.1366 -24.0480 -23.9943 -23.8396 -23.7822 -23.7721
   -23.7549 -23.6734 -11.4331  -7.6306  -4.7411  -3.4999  -0.6076   0.0398
     1.1341   1.6106

          k = 0.1429 0.3712 0.0000 ( 10942 PWs)   bands (ev):

   -24.3056 -24.2135 -24.1352 -24.0504 -23.9872 -23.8471 -23.7799 -23.7722
   -23.7442 -23.6577 -11.2616  -7.9897  -4.8964  -3.3287  -0.5897  -0.2654
     1.5160   1.8180

          k = 0.1429 0.4124 0.0000 ( 10942 PWs)   bands (ev):

   -24.3191 -24.2203 -24.1337 -24.0525 -23.9802 -23.8546 -23.7779 -23.7729
   -23.7348 -23.6437 -11.0774  -8.3318  -5.0261  -3.1461  -0.6069  -0.5625
     1.9085   2.1022

          k = 0.1429 0.4536 0.0000 ( 10953 PWs)   bands (ev):

   -24.3299 -24.2260 -24.1323 -24.0543 -23.9736 -23.8615 -23.7762 -23.7739
   -23.7271 -23.6322 -10.8873  -8.6472  -5.1282  -2.9593  -0.8414  -0.6350
     2.2035   2.5336

          k = 0.1429 0.4949 0.0000 ( 10959 PWs)   bands (ev):

   -24.3378 -24.2302 -24.1312 -24.0556 -23.9681 -23.8674 -23.7749 -23.7747
   -23.7215 -23.6236 -10.7055  -8.9198  -5.2017  -2.7824  -1.0857  -0.6613
     2.4725   2.6633

          k = 0.1429 0.5361 0.0000 ( 10952 PWs)   bands (ev):

   -24.3426 -24.2328 -24.1305 -24.0564 -23.9643 -23.8714 -23.7753 -23.7741
   -23.7181 -23.6184 -10.5612  -9.1191  -5.2460  -2.6433  -1.2659  -0.6791
     2.6604   2.7458

          k = 0.1429 0.5774 0.0000 ( 10949 PWs)   bands (ev):

   -24.3442 -24.2336 -24.1302 -24.0567 -23.9629 -23.8728 -23.7755 -23.7739
   -23.7169 -23.6166 -10.5028  -9.1960  -5.2608  -2.5875  -1.3355  -0.6854
     2.6562   2.9520

          k = 0.1786 0.3093 0.0000 ( 10941 PWs)   bands (ev):

   -24.2905 -24.2014 -24.1387 -24.0481 -23.9942 -23.8395 -23.7822 -23.7663
   -23.7630 -23.6728 -11.4428  -7.5994  -4.7716  -3.5096  -0.4299   0.0654
     0.9224   1.5909

          k = 0.1786 0.3505 0.0000 ( 10947 PWs)   bands (ev):

   -24.3075 -24.2054 -24.1391 -24.0507 -23.9869 -23.8473 -23.7797 -23.7666
   -23.7539 -23.6561 -11.2797  -7.9356  -4.9593  -3.3465  -0.2595  -0.2199
     1.1339   1.7713

          k = 0.1786 0.3918 0.0000 ( 10958 PWs)   bands (ev):

   -24.3223 -24.2095 -24.1389 -24.0531 -23.9793 -23.8554 -23.7774 -23.7679
   -23.7455 -23.6408 -11.1014  -8.2639  -5.1203  -3.1694  -0.5042  -0.1898
     1.4822   1.9753

          k = 0.1786 0.4330 0.0000 ( 10952 PWs)   bands (ev):

   -24.3346 -24.2133 -24.1383 -24.0551 -23.9718 -23.8632 -23.7754 -23.7694
   -23.7383 -23.6278 -10.9124  -8.5766  -5.2513  -2.9831  -0.7801  -0.1786
     1.9157   2.2046

          k = 0.1786 0.4743 0.0000 ( 10960 PWs)   bands (ev):

   -24.3440 -24.2165 -24.1377 -24.0567 -23.9649 -23.8704 -23.7739 -23.7707
   -23.7326 -23.6176 -10.7216  -8.8624  -5.3504  -2.7967  -1.0358  -0.1895
     2.3621   2.4787

          k = 0.1786 0.5155 0.0000 ( 10960 PWs)   bands (ev):

   -24.3503 -24.2187 -24.1371 -24.0579 -23.9594 -23.8761 -23.7728 -23.7716
   -23.7288 -23.6106 -10.5487  -9.0996  -5.4169  -2.6294  -1.2505  -0.2036
     2.4787   2.6807

          k = 0.1786 0.5567 0.0000 ( 10953 PWs)   bands (ev):

   -24.3535 -24.2198 -24.1368 -24.0584 -23.9563 -23.8794 -23.7723 -23.7721
   -23.7268 -23.6071 -10.4351  -9.2458  -5.4502  -2.5204  -1.3835  -0.2126
     2.4570   2.9321

          k = 0.2143 0.3712 0.0000 ( 10955 PWs)   bands (ev):

   -24.3234 -24.2054 -24.1411 -24.0533 -23.9790 -23.8556 -23.7772 -23.7645
   -23.7508 -23.6398 -11.1095  -8.2398  -5.1541  -3.1772  -0.4837   0.0308
     1.2340   1.9581

          k = 0.2143 0.4124 0.0000 ( 10961 PWs)   bands (ev):

   -24.3369 -24.2056 -24.1425 -24.0556 -23.9707 -23.8642 -23.7750 -23.7650
   -23.7461 -23.6256 -10.9253  -8.5377  -5.3186  -2.9953  -0.7464   0.2035
     1.4897   2.1679

          k = 0.2143 0.4536 0.0000 ( 10973 PWs)   bands (ev):

   -24.3477 -24.2061 -24.1435 -24.0575 -23.9626 -23.8726 -23.7732 -23.7662
   -23.7415 -23.6140 -10.7324  -8.8217  -5.4489  -2.8064  -1.0006   0.2715
     1.8791   2.3972

          k = 0.2143 0.4949 0.0000 ( 10983 PWs)   bands (ev):

   -24.3556 -24.2067 -24.1440 -24.0589 -23.9554 -23.8801 -23.7718 -23.7673
   -23.7380 -23.6053 -10.5427  -9.0780  -5.5429  -2.6220  -1.2329   0.2889
     2.3307   2.3481

          k = 0.2143 0.5361 0.0000 ( 10966 PWs)   bands (ev):

   -24.3604 -24.2070 -24.1443 -24.0598 -23.9500 -23.8856 -23.7710 -23.7681
   -23.7358 -23.6001 -10.3840  -9.2773  -5.5996  -2.4692  -1.4150   0.2901
     2.3032   2.9074

          k = 0.2143 0.5774 0.0000 ( 10961 PWs)   bands (ev):

   -24.3620 -24.2072 -24.1443 -24.0601 -23.9479 -23.8877 -23.7707 -23.7684
   -23.7351 -23.5983 -10.3158  -9.3591  -5.6185  -2.4040  -1.4900   0.2891
     2.2861   2.9015

          k = 0.2500 0.4330 0.0000 ( 10961 PWs)   bands (ev):

   -24.3490 -24.2021 -24.1460 -24.0578 -23.9618 -23.8734 -23.7730 -23.7636
   -23.7456 -23.6127 -10.7362  -8.8069  -5.4834  -2.8098  -0.9878   0.5244
     1.6040   2.3839

          k = 0.2500 0.4743 0.0000 ( 10975 PWs)   bands (ev):

   -24.3583 -24.1990 -24.1490 -24.0595 -23.9530 -23.8824 -23.7713 -23.7635
   -23.7444 -23.6026 -10.5404  -9.0642  -5.6097  -2.6190  -1.2215   0.7085
     1.8780   2.2797

          k = 0.2500 0.5155 0.0000 ( 10986 PWs)   bands (ev):

   -24.3645 -24.1968 -24.1512 -24.0607 -23.9452 -23.8904 -23.7702 -23.7639
   -23.7431 -23.5957 -10.3526  -9.2938  -5.6950  -2.4374  -1.4321   0.7809
     2.2044   2.2541

          k = 0.2500 0.5567 0.0000 ( 10980 PWs)   bands (ev):

   -24.3677 -24.1956 -24.1524 -24.0613 -23.9401 -23.8955 -23.7696 -23.7642
   -23.7424 -23.5922 -10.2155  -9.4519  -5.7379  -2.3060  -1.5782   0.8029
     2.1649   2.5668

          k = 0.2857 0.4949 0.0000 ( 10963 PWs)   bands (ev):

   -24.3659 -24.1924 -24.1545 -24.0610 -23.9433 -23.8922 -23.7699 -23.7615
   -23.7465 -23.5943 -10.3420  -9.2987  -5.7278  -2.4266  -1.4375   1.0640
     1.9645   2.1709

          k = 0.2857 0.5361 0.0000 ( 10971 PWs)   bands (ev):

   -24.3706 -24.1871 -24.1591 -24.0620 -23.9346 -23.9010 -23.7690 -23.7603
   -23.7479 -23.5892 -10.1542  -9.5083  -5.7998  -2.2460  -1.6323   1.2571
     2.1023   2.1619

          k = 0.2857 0.5774 0.0000 ( 10953 PWs)   bands (ev):

   -24.3722 -24.1848 -24.1611 -24.0623 -23.9304 -23.9053 -23.7687 -23.7599
   -23.7483 -23.5874 -10.0531  -9.6166  -5.8240  -2.1495  -1.7335   1.3080
     2.0790   2.2913

          k = 0.3214 0.5567 0.0000 ( 10971 PWs)   bands (ev):

   -24.3737 -24.1780 -24.1672 -24.0626 -23.9242 -23.9115 -23.7684 -23.7568
   -23.7520 -23.5858  -9.9560  -9.7142  -5.8533  -2.0561  -1.8262   1.6543
     2.0225   2.0497

     the Fermi energy is    -2.2972 ev

!    total energy              =    -326.39281335 Ry
     estimated scf accuracy    <       0.00000044 Ry
     smearing contrib. (-TS)   =       0.00023038 Ry
     internal energy E=F+TS    =    -326.39304373 Ry

     The total energy is F=E-TS. E is the sum of the following terms:
     one-electron contribution =    -882.82313930 Ry
     hartree contribution      =     448.52735480 Ry
     xc contribution           =     -95.07556298 Ry
     ewald contribution        =     202.97830376 Ry

     convergence has been achieved in   5 iterations

     Writing all to output data dir ../tmp/stanene.save/

     init_run     :     46.92s CPU     20.15s WALL (       1 calls)
     electrons    :   1052.56s CPU    441.53s WALL (       1 calls)

     Called by init_run:
     wfcinit      :     44.30s CPU     18.36s WALL (       1 calls)
     potinit      :      0.06s CPU      0.08s WALL (       1 calls)
     hinit0       :      0.45s CPU      0.46s WALL (       1 calls)

     Called by electrons:
     c_bands      :    910.30s CPU    377.58s WALL (       5 calls)
     sum_band     :    130.72s CPU     57.93s WALL (       5 calls)
     v_of_rho     :      0.24s CPU      0.28s WALL (       6 calls)
     newd         :     13.28s CPU      6.91s WALL (       6 calls)
     mix_rho      :      0.02s CPU      0.03s WALL (       5 calls)

     Called by c_bands:
     init_us_2    :      7.70s CPU      2.31s WALL (     880 calls)
     init_us_2:cp :      7.69s CPU      2.31s WALL (     880 calls)
     cegterg      :    892.17s CPU    372.06s WALL (     400 calls)

     Called by *egterg:
     cdiaghg      :      7.90s CPU      2.95s WALL (    2530 calls)
     h_psi        :    684.73s CPU    296.22s WALL (    2610 calls)
     s_psi        :     23.05s CPU      7.79s WALL (    2610 calls)
     g_psi        :      1.62s CPU      0.57s WALL (    2130 calls)

     Called by h_psi:
     h_psi:calbec :    475.88s CPU    227.79s WALL (    2610 calls)
     vloc_psi     :    184.19s CPU     59.97s WALL (    2610 calls)
     add_vuspsi   :     23.37s CPU      7.92s WALL (    2610 calls)

     General routines
     calbec       :    574.24s CPU    274.98s WALL (    3010 calls)
     fft          :      0.37s CPU      0.38s WALL (      66 calls)
     ffts         :      0.02s CPU      0.01s WALL (       5 calls)
     fftw         :    177.88s CPU     57.24s WALL (   56762 calls)

     Parallel routines

     PWSCF        :  18m19.70s CPU   7m42.08s WALL


   This run was terminated on:   0: 4:12  20Jun2024            

=------------------------------------------------------------------------------=
   JOB DONE.
=------------------------------------------------------------------------------=
