### Running on host: handarmsi

     Program PWSCF v.7.2 starts on 19Jun2024 at 23:33:45 

     This program is part of the open-source Quantum ESPRESSO suite
     for quantum simulation of materials; please cite
         "P. Giannozzi et al., J. Phys.:Condens. Matter 21 395502 (2009);
         "P. Giannozzi et al., J. Phys.:Condens. Matter 29 465901 (2017);
         "P. Giannozzi et al., J. Chem. Phys. 152 154105 (2020);
          URL http://www.quantum-espresso.org", 
     in publications or presentations arising from this work. More details at
     http://www.quantum-espresso.org/quote

     Parallel version (MPI), running on     1 processors

     MPI processes distributed on     1 nodes
     6055 MiB available memory on the printing compute node when the environment starts

     Reading input from sn_scf_kpoints-6.in

     Current dimensions of program PWSCF are:
     Max number of different atomic species (ntypx) = 10
     Max number of k-points (npk) =  40000
     Max angular momentum in pseudopotentials (lmaxx) =  4

     Subspace diagonalization in iterative solution of the eigenvalue problem:
     a serial algorithm will be used


     G-vector sticks info
     --------------------
     sticks:   dense  smooth     PW     G-vecs:    dense   smooth      PW
     Sum         859     859    253                87375    87375   13629

     Using Slab Decomposition



     bravais-lattice index     =            4
     lattice parameter (alat)  =       8.8439  a.u.
     unit-cell volume          =    2560.0529 (a.u.)^3
     number of atoms/cell      =            2
     number of atomic types    =            1
     number of electrons       =        28.00
     number of Kohn-Sham states=           18
     kinetic-energy cutoff     =      40.0000  Ry
     charge density cutoff     =     160.0000  Ry
     scf convergence threshold =      1.0E-06
     mixing beta               =       0.7000
     number of iterations used =            8  plain     mixing
     Exchange-correlation= SLA  PW   PBE  PBE
                           (   1   4   3   4   0   0   0)

     celldm(1)=   8.843918  celldm(2)=   0.000000  celldm(3)=   4.273504
     celldm(4)=   0.000000  celldm(5)=   0.000000  celldm(6)=   0.000000

     crystal axes: (cart. coord. in units of alat)
               a(1) = (   1.000000   0.000000   0.000000 )  
               a(2) = (  -0.500000   0.866025   0.000000 )  
               a(3) = (   0.000000   0.000000   4.273504 )  

     reciprocal axes: (cart. coord. in units 2 pi/alat)
               b(1) = (  1.000000  0.577350 -0.000000 )  
               b(2) = (  0.000000  1.154701  0.000000 )  
               b(3) = (  0.000000 -0.000000  0.234000 )  


     PseudoPot. # 1 for Sn read from file:
     ../pseudo/Sn_pbe_v1.uspp.F.UPF
     MD5 check sum: 4cf58ce39ec5d5d420df3dd08604eb00
     Pseudo is Ultrasoft + core correction, Zval = 14.0
     Generated by new atomic code, or converted to UPF format
     Using radial grid of  891 points,  6 beta functions with: 
                l(1) =   0
                l(2) =   0
                l(3) =   1
                l(4) =   1
                l(5) =   2
                l(6) =   2
     Q(r) pseudized with  6 coefficients,  rinner =    1.200   1.200   1.200
                                                       1.200   1.200

     atomic species   valence    mass     pseudopotential
        Sn            14.00   118.71000     Sn( 1.00)

     24 Sym. Ops., with inversion, found



   Cartesian axes

     site n.     atom                  positions (alat units)
         1           Sn  tau(   1) = (   0.0000000   0.5773503   2.1367521  )
         2           Sn  tau(   2) = (   0.5000000   0.2886751   2.1367521  )

     number of k points=     7  Methfessel-Paxton smearing, width (Ry)=  0.0200
                       cart. coord. in units 2pi/alat
        k(    1) = (   0.0000000   0.0000000   0.0000000), wk =   0.0555556
        k(    2) = (   0.0000000   0.1924501   0.0000000), wk =   0.3333333
        k(    3) = (   0.0000000   0.3849002   0.0000000), wk =   0.3333333
        k(    4) = (   0.0000000  -0.5773503   0.0000000), wk =   0.1666667
        k(    5) = (   0.1666667   0.2886751   0.0000000), wk =   0.3333333
        k(    6) = (   0.1666667   0.4811252   0.0000000), wk =   0.6666667
        k(    7) = (   0.3333333   0.5773503   0.0000000), wk =   0.1111111

     Dense  grid:    87375 G-vectors     FFT dimensions: (  36,  36, 160)

     Estimated max dynamical RAM per process >     332.27 MB

     Check: negative core charge=   -0.000001

     Initial potential from superposition of free atoms

     starting charge      25.9999, renormalised to      28.0000

     negative rho (up, down):  1.678E-02 0.000E+00
     Starting wfcs are   18 randomized atomic wfcs

     total cpu time spent up to now is        4.0 secs

     Self-consistent Calculation

     iteration #  1     ecut=    40.00 Ry     beta= 0.70
     Davidson diagonalization with overlap
     ethr =  1.00E-02,  avg # of iterations =  8.1

     negative rho (up, down):  1.148E-02 0.000E+00

     total cpu time spent up to now is       17.3 secs

     total energy              =    -325.40989920 Ry
     estimated scf accuracy    <       2.51557197 Ry

     iteration #  2     ecut=    40.00 Ry     beta= 0.70
     Davidson diagonalization with overlap
     ethr =  8.98E-03,  avg # of iterations =  2.1

     negative rho (up, down):  1.311E-02 0.000E+00

     total cpu time spent up to now is       24.6 secs

     total energy              =    -326.33295617 Ry
     estimated scf accuracy    <       0.37738755 Ry

     iteration #  3     ecut=    40.00 Ry     beta= 0.70
     Davidson diagonalization with overlap
     ethr =  1.35E-03,  avg # of iterations =  2.0

     negative rho (up, down):  1.431E-02 0.000E+00

     total cpu time spent up to now is       33.1 secs

     total energy              =    -326.39068736 Ry
     estimated scf accuracy    <       0.00590818 Ry

     iteration #  4     ecut=    40.00 Ry     beta= 0.70
     Davidson diagonalization with overlap
     ethr =  2.11E-05,  avg # of iterations =  7.4

     negative rho (up, down):  1.418E-02 0.000E+00

     total cpu time spent up to now is       47.2 secs

     total energy              =    -326.39280273 Ry
     estimated scf accuracy    <       0.00084491 Ry

     iteration #  5     ecut=    40.00 Ry     beta= 0.70
     Davidson diagonalization with overlap
     ethr =  3.02E-06,  avg # of iterations =  6.9

     negative rho (up, down):  1.417E-02 0.000E+00

     total cpu time spent up to now is       57.4 secs

     total energy              =    -326.39300134 Ry
     estimated scf accuracy    <       0.00000261 Ry

     iteration #  6     ecut=    40.00 Ry     beta= 0.70
     Davidson diagonalization with overlap
     ethr =  9.31E-09,  avg # of iterations =  3.6

     negative rho (up, down):  1.417E-02 0.000E+00

     total cpu time spent up to now is       67.2 secs

     End of self-consistent calculation

          k = 0.0000 0.0000 0.0000 ( 10895 PWs)   bands (ev):

   -24.1699 -24.1615 -24.1615 -24.0592 -24.0592 -23.8982 -23.8982 -23.8273
   -23.8273 -23.7615 -12.2666  -4.3387  -3.7343  -3.4045  -3.4045   0.6205
     0.6205   0.6865

          k = 0.0000 0.1925 0.0000 ( 10909 PWs)   bands (ev):

   -24.2191 -24.2173 -24.1626 -24.0647 -24.0486 -23.8483 -23.8394 -23.8357
   -23.8218 -23.7568 -12.0307  -5.9105  -4.0950  -3.8320  -1.7263   0.7463
     1.0183   1.3742

          k = 0.0000 0.3849 0.0000 ( 10938 PWs)   bands (ev):

   -24.2966 -24.2931 -24.1521 -24.0751 -24.0230 -23.8681 -23.8115 -23.8114
   -23.7464 -23.7183 -11.3539  -7.9630  -4.4472  -3.4107  -1.6462  -0.2306
     1.6929   2.3490

          k = 0.0000-0.5774 0.0000 ( 10920 PWs)   bands (ev):

   -24.3277 -24.3230 -24.1466 -24.0799 -24.0057 -23.8868 -23.8099 -23.8066
   -23.7098 -23.6900 -10.6781  -9.1143  -4.6918  -2.7504  -1.7969  -1.2470
     2.8339   3.0247

          k = 0.1667 0.2887 0.0000 ( 10925 PWs)   bands (ev):

   -24.3112 -24.2311 -24.1673 -24.0746 -24.0271 -23.8630 -23.8122 -23.8007
   -23.7972 -23.7158 -11.5690  -7.3966  -4.6664  -3.6253  -0.6070   0.2415
     0.8128   1.4803

          k = 0.1667 0.4811 0.0000 ( 10952 PWs)   bands (ev):

   -24.3754 -24.2530 -24.1650 -24.0846 -23.9942 -23.8978 -23.8025 -23.8006
   -23.7604 -23.6525 -10.7429  -8.9066  -5.3338  -2.8075  -1.0660  -0.3752
     2.4184   2.5481

          k = 0.3333 0.5774 0.0000 ( 10977 PWs)   bands (ev):

   -24.4076 -24.2035 -24.2035 -24.0910 -23.9461 -23.9461 -23.7967 -23.7841
   -23.7841 -23.6187  -9.8619  -9.8619  -5.8904  -1.9564  -1.9564   1.8351
     1.8351   2.0296

     the Fermi energy is    -2.0110 ev

!    total energy              =    -326.39300191 Ry
     estimated scf accuracy    <       0.00000024 Ry
     smearing contrib. (-TS)   =       0.00029806 Ry
     internal energy E=F+TS    =    -326.39329997 Ry

     The total energy is F=E-TS. E is the sum of the following terms:
     one-electron contribution =    -882.77702262 Ry
     hartree contribution      =     448.48048867 Ry
     xc contribution           =     -95.07506978 Ry
     ewald contribution        =     202.97830376 Ry

     convergence has been achieved in   6 iterations

     Writing all to output data dir ../tmp/stanene.save/

     init_run     :      7.54s CPU      3.89s WALL (       1 calls)
     electrons    :    146.85s CPU     63.29s WALL (       1 calls)

     Called by init_run:
     wfcinit      :      4.20s CPU      1.97s WALL (       1 calls)
     potinit      :      0.08s CPU      0.09s WALL (       1 calls)
     hinit0       :      0.46s CPU      0.48s WALL (       1 calls)

     Called by electrons:
     c_bands      :    106.12s CPU     44.20s WALL (       6 calls)
     sum_band     :     20.43s CPU      8.82s WALL (       6 calls)
     v_of_rho     :      0.33s CPU      0.35s WALL (       7 calls)
     newd         :     22.71s CPU     11.23s WALL (       7 calls)
     mix_rho      :      0.04s CPU      0.04s WALL (       6 calls)

     Called by c_bands:
     init_us_2    :      0.82s CPU      0.25s WALL (      91 calls)
     init_us_2:cp :      0.82s CPU      0.25s WALL (      91 calls)
     cegterg      :    104.32s CPU     43.59s WALL (      42 calls)

     Called by *egterg:
     cdiaghg      :      0.92s CPU      0.39s WALL (     253 calls)
     h_psi        :     78.21s CPU     34.34s WALL (     260 calls)
     s_psi        :      3.48s CPU      1.07s WALL (     260 calls)
     g_psi        :      0.14s CPU      0.06s WALL (     211 calls)

     Called by h_psi:
     h_psi:calbec :     54.90s CPU     26.51s WALL (     260 calls)
     vloc_psi     :     19.97s CPU      6.65s WALL (     260 calls)
     add_vuspsi   :      3.20s CPU      1.13s WALL (     260 calls)

     General routines
     calbec       :     67.77s CPU     32.80s WALL (     302 calls)
     fft          :      0.38s CPU      0.40s WALL (      77 calls)
     ffts         :      0.07s CPU      0.01s WALL (       6 calls)
     fftw         :     19.77s CPU      6.46s WALL (    5662 calls)

     Parallel routines

     PWSCF        :   2m34.58s CPU   1m 7.31s WALL


   This run was terminated on:  23:34:52  19Jun2024            

=------------------------------------------------------------------------------=
   JOB DONE.
=------------------------------------------------------------------------------=
