### Running on host: handarmsi

     Program PWSCF v.7.2 starts on 19Jun2024 at 23:34:52 

     This program is part of the open-source Quantum ESPRESSO suite
     for quantum simulation of materials; please cite
         "P. Giannozzi et al., J. Phys.:Condens. Matter 21 395502 (2009);
         "P. Giannozzi et al., J. Phys.:Condens. Matter 29 465901 (2017);
         "P. Giannozzi et al., J. Chem. Phys. 152 154105 (2020);
          URL http://www.quantum-espresso.org", 
     in publications or presentations arising from this work. More details at
     http://www.quantum-espresso.org/quote

     Parallel version (MPI), running on     1 processors

     MPI processes distributed on     1 nodes
     6058 MiB available memory on the printing compute node when the environment starts

     Reading input from sn_scf_kpoints-8.in

     Current dimensions of program PWSCF are:
     Max number of different atomic species (ntypx) = 10
     Max number of k-points (npk) =  40000
     Max angular momentum in pseudopotentials (lmaxx) =  4

     Subspace diagonalization in iterative solution of the eigenvalue problem:
     a serial algorithm will be used


     G-vector sticks info
     --------------------
     sticks:   dense  smooth     PW     G-vecs:    dense   smooth      PW
     Sum         859     859    253                87375    87375   13497

     Using Slab Decomposition



     bravais-lattice index     =            4
     lattice parameter (alat)  =       8.8439  a.u.
     unit-cell volume          =    2560.0529 (a.u.)^3
     number of atoms/cell      =            2
     number of atomic types    =            1
     number of electrons       =        28.00
     number of Kohn-Sham states=           18
     kinetic-energy cutoff     =      40.0000  Ry
     charge density cutoff     =     160.0000  Ry
     scf convergence threshold =      1.0E-06
     mixing beta               =       0.7000
     number of iterations used =            8  plain     mixing
     Exchange-correlation= SLA  PW   PBE  PBE
                           (   1   4   3   4   0   0   0)

     celldm(1)=   8.843918  celldm(2)=   0.000000  celldm(3)=   4.273504
     celldm(4)=   0.000000  celldm(5)=   0.000000  celldm(6)=   0.000000

     crystal axes: (cart. coord. in units of alat)
               a(1) = (   1.000000   0.000000   0.000000 )  
               a(2) = (  -0.500000   0.866025   0.000000 )  
               a(3) = (   0.000000   0.000000   4.273504 )  

     reciprocal axes: (cart. coord. in units 2 pi/alat)
               b(1) = (  1.000000  0.577350 -0.000000 )  
               b(2) = (  0.000000  1.154701  0.000000 )  
               b(3) = (  0.000000 -0.000000  0.234000 )  


     PseudoPot. # 1 for Sn read from file:
     ../pseudo/Sn_pbe_v1.uspp.F.UPF
     MD5 check sum: 4cf58ce39ec5d5d420df3dd08604eb00
     Pseudo is Ultrasoft + core correction, Zval = 14.0
     Generated by new atomic code, or converted to UPF format
     Using radial grid of  891 points,  6 beta functions with: 
                l(1) =   0
                l(2) =   0
                l(3) =   1
                l(4) =   1
                l(5) =   2
                l(6) =   2
     Q(r) pseudized with  6 coefficients,  rinner =    1.200   1.200   1.200
                                                       1.200   1.200

     atomic species   valence    mass     pseudopotential
        Sn            14.00   118.71000     Sn( 1.00)

     24 Sym. Ops., with inversion, found



   Cartesian axes

     site n.     atom                  positions (alat units)
         1           Sn  tau(   1) = (   0.0000000   0.5773503   2.1367521  )
         2           Sn  tau(   2) = (   0.5000000   0.2886751   2.1367521  )

     number of k points=    10  Methfessel-Paxton smearing, width (Ry)=  0.0200
                       cart. coord. in units 2pi/alat
        k(    1) = (   0.0000000   0.0000000   0.0000000), wk =   0.0312500
        k(    2) = (   0.0000000   0.1443376   0.0000000), wk =   0.1875000
        k(    3) = (   0.0000000   0.2886751   0.0000000), wk =   0.1875000
        k(    4) = (   0.0000000   0.4330127   0.0000000), wk =   0.1875000
        k(    5) = (   0.0000000  -0.5773503   0.0000000), wk =   0.0937500
        k(    6) = (   0.1250000   0.2165064   0.0000000), wk =   0.1875000
        k(    7) = (   0.1250000   0.3608439   0.0000000), wk =   0.3750000
        k(    8) = (   0.1250000   0.5051815   0.0000000), wk =   0.3750000
        k(    9) = (   0.2500000   0.4330127   0.0000000), wk =   0.1875000
        k(   10) = (   0.2500000   0.5773503   0.0000000), wk =   0.1875000

     Dense  grid:    87375 G-vectors     FFT dimensions: (  36,  36, 160)

     Estimated max dynamical RAM per process >     341.28 MB

     Check: negative core charge=   -0.000001

     Initial potential from superposition of free atoms

     starting charge      25.9999, renormalised to      28.0000

     negative rho (up, down):  1.678E-02 0.000E+00
     Starting wfcs are   18 randomized atomic wfcs

     total cpu time spent up to now is        5.6 secs

     Self-consistent Calculation

     iteration #  1     ecut=    40.00 Ry     beta= 0.70
     Davidson diagonalization with overlap
     ethr =  1.00E-02,  avg # of iterations =  8.1

     negative rho (up, down):  1.181E-02 0.000E+00

     total cpu time spent up to now is       22.0 secs

     total energy              =    -325.42692933 Ry
     estimated scf accuracy    <       2.49746181 Ry

     iteration #  2     ecut=    40.00 Ry     beta= 0.70
     Davidson diagonalization with overlap
     ethr =  8.92E-03,  avg # of iterations =  2.0

     negative rho (up, down):  1.335E-02 0.000E+00

     total cpu time spent up to now is       31.4 secs

     total energy              =    -326.33080452 Ry
     estimated scf accuracy    <       0.37600083 Ry

     iteration #  3     ecut=    40.00 Ry     beta= 0.70
     Davidson diagonalization with overlap
     ethr =  1.34E-03,  avg # of iterations =  2.3

     negative rho (up, down):  1.423E-02 0.000E+00

     total cpu time spent up to now is       41.9 secs

     total energy              =    -326.39065824 Ry
     estimated scf accuracy    <       0.00504737 Ry

     iteration #  4     ecut=    40.00 Ry     beta= 0.70
     Davidson diagonalization with overlap
     ethr =  1.80E-05,  avg # of iterations =  9.4

     negative rho (up, down):  1.421E-02 0.000E+00

     total cpu time spent up to now is       57.8 secs

     total energy              =    -326.39237775 Ry
     estimated scf accuracy    <       0.00042962 Ry

     iteration #  5     ecut=    40.00 Ry     beta= 0.70
     Davidson diagonalization with overlap
     ethr =  1.53E-06,  avg # of iterations =  4.9

     negative rho (up, down):  1.417E-02 0.000E+00

     total cpu time spent up to now is       69.4 secs

     total energy              =    -326.39245412 Ry
     estimated scf accuracy    <       0.00000238 Ry

     iteration #  6     ecut=    40.00 Ry     beta= 0.70
     Davidson diagonalization with overlap
     ethr =  8.49E-09,  avg # of iterations =  3.5

     negative rho (up, down):  1.418E-02 0.000E+00

     total cpu time spent up to now is       80.5 secs

     End of self-consistent calculation

          k = 0.0000 0.0000 0.0000 ( 10895 PWs)   bands (ev):

   -24.1730 -24.1653 -24.1653 -24.0624 -24.0624 -23.9018 -23.9018 -23.8306
   -23.8306 -23.7645 -12.2681  -4.3393  -3.7362  -3.4059  -3.4059   0.6210
     0.6210   0.6866

          k = 0.0000 0.1443 0.0000 ( 10895 PWs)   bands (ev):

   -24.2022 -24.2004 -24.1679 -24.0657 -24.0564 -23.8694 -23.8627 -23.8375
   -23.8273 -23.7627 -12.1350  -5.3421  -4.2015  -3.6712  -2.0289   0.5911
     0.8808   1.1555

          k = 0.0000 0.2887 0.0000 ( 10909 PWs)   bands (ev):

   -24.2648 -24.2625 -24.1607 -24.0732 -24.0400 -23.8560 -23.8248 -23.8198
   -23.7912 -23.7458 -11.7427  -6.9943  -4.1676  -3.8003  -1.5529   0.5719
     1.2321   1.6878

          k = 0.0000 0.4330 0.0000 ( 10948 PWs)   bands (ev):

   -24.3135 -24.3097 -24.1531 -24.0803 -24.0196 -23.8785 -23.8133 -23.8127
   -23.7345 -23.7103 -11.1382  -8.3886  -4.5531  -3.1964  -1.7067  -0.5997
     1.9596   2.6002

          k = 0.0000-0.5774 0.0000 ( 10920 PWs)   bands (ev):

   -24.3313 -24.3267 -24.1498 -24.0832 -24.0090 -23.8900 -23.8130 -23.8099
   -23.7135 -23.6936 -10.6796  -9.1156  -4.6927  -2.7512  -1.7975  -1.2477
     2.8338   3.0246

          k = 0.1250 0.2165 0.0000 ( 10891 PWs)   bands (ev):

   -24.2683 -24.2189 -24.1701 -24.0718 -24.0441 -23.8511 -23.8300 -23.8213
   -23.8173 -23.7497 -11.8716  -6.5382  -4.2014  -3.9313  -1.1494   0.5945
     0.9213   1.1565

          k = 0.1250 0.3608 0.0000 ( 10950 PWs)   bands (ev):

   -24.3333 -24.2516 -24.1659 -24.0805 -24.0224 -23.8748 -23.8128 -23.8071
   -23.7785 -23.7023 -11.3627  -7.8815  -4.8083  -3.4179  -0.8060  -0.1637
     1.5085   1.7557

          k = 0.1250 0.5052 0.0000 ( 10943 PWs)   bands (ev):

   -24.3707 -24.2737 -24.1608 -24.0864 -24.0013 -23.8973 -23.8079 -23.8071
   -23.7506 -23.6640 -10.7239  -8.9789  -5.1442  -2.7901  -1.1284  -0.9099
     2.5089   2.7454

          k = 0.2500 0.4330 0.0000 ( 10961 PWs)   bands (ev):

   -24.3860 -24.2376 -24.1791 -24.0892 -23.9933 -23.9049 -23.8045 -23.7955
   -23.7800 -23.6496 -10.7639  -8.8348  -5.5123  -2.8256  -1.0035   0.4968
     1.5789   2.3707

          k = 0.2500 0.5774 0.0000 ( 10975 PWs)   bands (ev):

   -24.4052 -24.2305 -24.1862 -24.0929 -23.9709 -23.9278 -23.8011 -23.7964
   -23.7760 -23.6289 -10.2217  -9.5039  -5.7721  -2.3014  -1.6163   0.7779
     2.1496   2.5903

     the Fermi energy is    -2.2020 ev

!    total energy              =    -326.39245543 Ry
     estimated scf accuracy    <       0.00000019 Ry
     smearing contrib. (-TS)   =       0.00000310 Ry
     internal energy E=F+TS    =    -326.39245853 Ry

     The total energy is F=E-TS. E is the sum of the following terms:
     one-electron contribution =    -882.76791928 Ry
     hartree contribution      =     448.47119878 Ry
     xc contribution           =     -95.07404178 Ry
     ewald contribution        =     202.97830376 Ry

     convergence has been achieved in   6 iterations

     Writing all to output data dir ../tmp/stanene.save/

     init_run     :     11.72s CPU      5.52s WALL (       1 calls)
     electrons    :    178.00s CPU     74.90s WALL (       1 calls)

     Called by init_run:
     wfcinit      :      7.76s CPU      3.20s WALL (       1 calls)
     potinit      :      0.09s CPU      0.09s WALL (       1 calls)
     hinit0       :      0.47s CPU      0.47s WALL (       1 calls)

     Called by electrons:
     c_bands      :    137.49s CPU     56.69s WALL (       6 calls)
     sum_band     :     27.05s CPU     11.39s WALL (       6 calls)
     v_of_rho     :      0.35s CPU      0.36s WALL (       7 calls)
     newd         :     16.42s CPU      8.18s WALL (       7 calls)
     mix_rho      :      0.04s CPU      0.04s WALL (       6 calls)

     Called by c_bands:
     init_us_2    :      1.44s CPU      0.43s WALL (     130 calls)
     init_us_2:cp :      1.44s CPU      0.43s WALL (     130 calls)
     cegterg      :    134.13s CPU     55.63s WALL (      60 calls)

     Called by *egterg:
     cdiaghg      :      1.48s CPU      0.56s WALL (     362 calls)
     h_psi        :    103.84s CPU     45.27s WALL (     372 calls)
     s_psi        :      4.38s CPU      1.36s WALL (     372 calls)
     g_psi        :      0.37s CPU      0.12s WALL (     302 calls)

     Called by h_psi:
     h_psi:calbec :     68.86s CPU     33.21s WALL (     372 calls)
     vloc_psi     :     30.85s CPU     10.72s WALL (     372 calls)
     add_vuspsi   :      3.93s CPU      1.25s WALL (     372 calls)

     General routines
     calbec       :     86.14s CPU     41.24s WALL (     432 calls)
     fft          :      0.40s CPU      0.41s WALL (      77 calls)
     ffts         :      0.05s CPU      0.01s WALL (       6 calls)
     fftw         :     30.03s CPU     10.27s WALL (    8306 calls)

     Parallel routines

     PWSCF        :   3m 9.89s CPU   1m20.57s WALL


   This run was terminated on:  23:36:13  19Jun2024            

=------------------------------------------------------------------------------=
   JOB DONE.
=------------------------------------------------------------------------------=
