
     Program PWSCF v.7.2 starts on 24Jun2024 at 16:40:16 

     This program is part of the open-source Quantum ESPRESSO suite
     for quantum simulation of materials; please cite
         "P. Giannozzi et al., J. Phys.:Condens. Matter 21 395502 (2009);
         "P. Giannozzi et al., J. Phys.:Condens. Matter 29 465901 (2017);
         "P. Giannozzi et al., J. Chem. Phys. 152 154105 (2020);
          URL http://www.quantum-espresso.org", 
     in publications or presentations arising from this work. More details at
     http://www.quantum-espresso.org/quote

     Parallel version (MPI), running on     6 processors

     MPI processes distributed on     1 nodes
     6068 MiB available memory on the printing compute node when the environment starts

     Waiting for input...
     Reading input from standard input

     Current dimensions of program PWSCF are:
     Max number of different atomic species (ntypx) = 10
     Max number of k-points (npk) =  40000
     Max angular momentum in pseudopotentials (lmaxx) =  4

     R & G space division:  proc/nbgrp/npool/nimage =       6
     Subspace diagonalization in iterative solution of the eigenvalue problem:
     a serial algorithm will be used


     Parallelization info
     --------------------
     sticks:   dense  smooth     PW     G-vecs:    dense   smooth      PW
     Min         431     214     61                75909    26818    4015
     Max         432     215     62                75924    26841    4025
     Sum        2587    1285    367               455489   160939   24117

     Using Slab Decomposition



     bravais-lattice index     =            4
     lattice parameter (alat)  =       8.8506  a.u.
     unit-cell volume          =    2563.9136 (a.u.)^3
     number of atoms/cell      =            2
     number of atomic types    =            1
     number of electrons       =        28.00
     number of Kohn-Sham states=           18
     kinetic-energy cutoff     =      60.0000  Ry
     charge density cutoff     =     480.0000  Ry
     scf convergence threshold =      1.0E-07
     mixing beta               =       0.7000
     number of iterations used =            8  plain     mixing
     Exchange-correlation= SLA  PW   PBE  PBE
                           (   1   4   3   4   0   0   0)

     celldm(1)=   8.850584  celldm(2)=   0.000000  celldm(3)=   4.270286
     celldm(4)=   0.000000  celldm(5)=   0.000000  celldm(6)=   0.000000

     crystal axes: (cart. coord. in units of alat)
               a(1) = (   1.000000   0.000000   0.000000 )  
               a(2) = (  -0.500000   0.866025   0.000000 )  
               a(3) = (   0.000000   0.000000   4.270286 )  

     reciprocal axes: (cart. coord. in units 2 pi/alat)
               b(1) = (  1.000000  0.577350 -0.000000 )  
               b(2) = (  0.000000  1.154701  0.000000 )  
               b(3) = (  0.000000 -0.000000  0.234176 )  


     PseudoPot. # 1 for Sn read from file:
     ../pseudo/Sn_pbe_v1.uspp.F.UPF
     MD5 check sum: 4cf58ce39ec5d5d420df3dd08604eb00
     Pseudo is Ultrasoft + core correction, Zval = 14.0
     Generated by new atomic code, or converted to UPF format
     Using radial grid of  891 points,  6 beta functions with: 
                l(1) =   0
                l(2) =   0
                l(3) =   1
                l(4) =   1
                l(5) =   2
                l(6) =   2
     Q(r) pseudized with  6 coefficients,  rinner =    1.200   1.200   1.200
                                                       1.200   1.200

     atomic species   valence    mass     pseudopotential
        Sn            14.00   118.71000     Sn( 1.00)

     24 Sym. Ops., with inversion, found


                                    s                        frac. trans.

      isym =  1     identity                                     

 cryst.   s( 1) = (     1          0          0      )
                  (     0          1          0      )
                  (     0          0          1      )

 cart.    s( 1) = (  1.0000000  0.0000000  0.0000000 )
                  (  0.0000000  1.0000000  0.0000000 )
                  (  0.0000000  0.0000000  1.0000000 )


      isym =  2     180 deg rotation - cart. axis [0,0,1]        

 cryst.   s( 2) = (    -1          0          0      )
                  (     0         -1          0      )
                  (     0          0          1      )

 cart.    s( 2) = ( -1.0000000  0.0000000  0.0000000 )
                  (  0.0000000 -1.0000000  0.0000000 )
                  (  0.0000000  0.0000000  1.0000000 )


      isym =  3     180 deg rotation - cart. axis [0,1,0]        

 cryst.   s( 3) = (    -1          0          0      )
                  (     1          1          0      )
                  (     0          0         -1      )

 cart.    s( 3) = ( -1.0000000  0.0000000  0.0000000 )
                  (  0.0000000  1.0000000  0.0000000 )
                  (  0.0000000  0.0000000 -1.0000000 )


      isym =  4     180 deg rotation - cart. axis [1,0,0]        

 cryst.   s( 4) = (     1          0          0      )
                  (    -1         -1          0      )
                  (     0          0         -1      )

 cart.    s( 4) = (  1.0000000  0.0000000  0.0000000 )
                  (  0.0000000 -1.0000000  0.0000000 )
                  (  0.0000000  0.0000000 -1.0000000 )


      isym =  5      60 deg rotation - cryst. axis [0,0,1]       

 cryst.   s( 5) = (     1          1          0      )
                  (    -1          0          0      )
                  (     0          0          1      )

 cart.    s( 5) = (  0.5000000 -0.8660254  0.0000000 )
                  (  0.8660254  0.5000000  0.0000000 )
                  (  0.0000000  0.0000000  1.0000000 )


      isym =  6      60 deg rotation - cryst. axis [0,0,-1]      

 cryst.   s( 6) = (     0         -1          0      )
                  (     1          1          0      )
                  (     0          0          1      )

 cart.    s( 6) = (  0.5000000  0.8660254  0.0000000 )
                  ( -0.8660254  0.5000000  0.0000000 )
                  (  0.0000000  0.0000000  1.0000000 )


      isym =  7     120 deg rotation - cryst. axis [0,0,1]       

 cryst.   s( 7) = (     0          1          0      )
                  (    -1         -1          0      )
                  (     0          0          1      )

 cart.    s( 7) = ( -0.5000000 -0.8660254  0.0000000 )
                  (  0.8660254 -0.5000000  0.0000000 )
                  (  0.0000000  0.0000000  1.0000000 )


      isym =  8     120 deg rotation - cryst. axis [0,0,-1]      

 cryst.   s( 8) = (    -1         -1          0      )
                  (     1          0          0      )
                  (     0          0          1      )

 cart.    s( 8) = ( -0.5000000  0.8660254  0.0000000 )
                  ( -0.8660254 -0.5000000  0.0000000 )
                  (  0.0000000  0.0000000  1.0000000 )


      isym =  9     180 deg rotation - cryst. axis [1,-1,0]      

 cryst.   s( 9) = (     0         -1          0      )
                  (    -1          0          0      )
                  (     0          0         -1      )

 cart.    s( 9) = (  0.5000000 -0.8660254  0.0000000 )
                  ( -0.8660254 -0.5000000  0.0000000 )
                  (  0.0000000  0.0000000 -1.0000000 )


      isym = 10     180 deg rotation - cryst. axis [2,1,0]       

 cryst.   s(10) = (     1          1          0      )
                  (     0         -1          0      )
                  (     0          0         -1      )

 cart.    s(10) = (  0.5000000  0.8660254  0.0000000 )
                  (  0.8660254 -0.5000000  0.0000000 )
                  (  0.0000000  0.0000000 -1.0000000 )


      isym = 11     180 deg rotation - cryst. axis [0,1,0]       

 cryst.   s(11) = (    -1         -1          0      )
                  (     0          1          0      )
                  (     0          0         -1      )

 cart.    s(11) = ( -0.5000000 -0.8660254  0.0000000 )
                  ( -0.8660254  0.5000000  0.0000000 )
                  (  0.0000000  0.0000000 -1.0000000 )


      isym = 12     180 deg rotation - cryst. axis [1,1,0]       

 cryst.   s(12) = (     0          1          0      )
                  (     1          0          0      )
                  (     0          0         -1      )

 cart.    s(12) = ( -0.5000000  0.8660254  0.0000000 )
                  (  0.8660254  0.5000000  0.0000000 )
                  (  0.0000000  0.0000000 -1.0000000 )


      isym = 13     inversion                                    

 cryst.   s(13) = (    -1          0          0      )
                  (     0         -1          0      )
                  (     0          0         -1      )

 cart.    s(13) = ( -1.0000000  0.0000000  0.0000000 )
                  (  0.0000000 -1.0000000  0.0000000 )
                  (  0.0000000  0.0000000 -1.0000000 )


      isym = 14     inv. 180 deg rotation - cart. axis [0,0,1]   

 cryst.   s(14) = (     1          0          0      )
                  (     0          1          0      )
                  (     0          0         -1      )

 cart.    s(14) = (  1.0000000  0.0000000  0.0000000 )
                  (  0.0000000  1.0000000  0.0000000 )
                  (  0.0000000  0.0000000 -1.0000000 )


      isym = 15     inv. 180 deg rotation - cart. axis [0,1,0]   

 cryst.   s(15) = (     1          0          0      )
                  (    -1         -1          0      )
                  (     0          0          1      )

 cart.    s(15) = (  1.0000000  0.0000000  0.0000000 )
                  (  0.0000000 -1.0000000  0.0000000 )
                  (  0.0000000  0.0000000  1.0000000 )


      isym = 16     inv. 180 deg rotation - cart. axis [1,0,0]   

 cryst.   s(16) = (    -1          0          0      )
                  (     1          1          0      )
                  (     0          0          1      )

 cart.    s(16) = ( -1.0000000  0.0000000  0.0000000 )
                  (  0.0000000  1.0000000  0.0000000 )
                  (  0.0000000  0.0000000  1.0000000 )


      isym = 17     inv.  60 deg rotation - cryst. axis [0,0,1]  

 cryst.   s(17) = (    -1         -1          0      )
                  (     1          0          0      )
                  (     0          0         -1      )

 cart.    s(17) = ( -0.5000000  0.8660254  0.0000000 )
                  ( -0.8660254 -0.5000000  0.0000000 )
                  (  0.0000000  0.0000000 -1.0000000 )


      isym = 18     inv.  60 deg rotation - cryst. axis [0,0,-1] 

 cryst.   s(18) = (     0          1          0      )
                  (    -1         -1          0      )
                  (     0          0         -1      )

 cart.    s(18) = ( -0.5000000 -0.8660254  0.0000000 )
                  (  0.8660254 -0.5000000  0.0000000 )
                  (  0.0000000  0.0000000 -1.0000000 )


      isym = 19     inv. 120 deg rotation - cryst. axis [0,0,1]  

 cryst.   s(19) = (     0         -1          0      )
                  (     1          1          0      )
                  (     0          0         -1      )

 cart.    s(19) = (  0.5000000  0.8660254  0.0000000 )
                  ( -0.8660254  0.5000000  0.0000000 )
                  (  0.0000000  0.0000000 -1.0000000 )


      isym = 20     inv. 120 deg rotation - cryst. axis [0,0,-1] 

 cryst.   s(20) = (     1          1          0      )
                  (    -1          0          0      )
                  (     0          0         -1      )

 cart.    s(20) = (  0.5000000 -0.8660254  0.0000000 )
                  (  0.8660254  0.5000000  0.0000000 )
                  (  0.0000000  0.0000000 -1.0000000 )


      isym = 21     inv. 180 deg rotation - cryst. axis [1,-1,0] 

 cryst.   s(21) = (     0          1          0      )
                  (     1          0          0      )
                  (     0          0          1      )

 cart.    s(21) = ( -0.5000000  0.8660254  0.0000000 )
                  (  0.8660254  0.5000000  0.0000000 )
                  (  0.0000000  0.0000000  1.0000000 )


      isym = 22     inv. 180 deg rotation - cryst. axis [2,1,0]  

 cryst.   s(22) = (    -1         -1          0      )
                  (     0          1          0      )
                  (     0          0          1      )

 cart.    s(22) = ( -0.5000000 -0.8660254  0.0000000 )
                  ( -0.8660254  0.5000000  0.0000000 )
                  (  0.0000000  0.0000000  1.0000000 )


      isym = 23     inv. 180 deg rotation - cryst. axis [0,1,0]  

 cryst.   s(23) = (     1          1          0      )
                  (     0         -1          0      )
                  (     0          0          1      )

 cart.    s(23) = (  0.5000000  0.8660254  0.0000000 )
                  (  0.8660254 -0.5000000  0.0000000 )
                  (  0.0000000  0.0000000  1.0000000 )


      isym = 24     inv. 180 deg rotation - cryst. axis [1,1,0]  

 cryst.   s(24) = (     0         -1          0      )
                  (    -1          0          0      )
                  (     0          0          1      )

 cart.    s(24) = (  0.5000000 -0.8660254  0.0000000 )
                  ( -0.8660254 -0.5000000  0.0000000 )
                  (  0.0000000  0.0000000  1.0000000 )


     point group D_6h(6/mmm)
     there are 12 classes
     the character table:

       E     2C6   2C3   C2    3C2'  3C2'' i     2S3   2S6   s_h   3s_d  3s_v 
A_1g   1.00  1.00  1.00  1.00  1.00  1.00  1.00  1.00  1.00  1.00  1.00  1.00
A_2g   1.00  1.00  1.00  1.00 -1.00 -1.00  1.00  1.00  1.00  1.00 -1.00 -1.00
B_1g   1.00 -1.00  1.00 -1.00  1.00 -1.00  1.00 -1.00  1.00 -1.00  1.00 -1.00
B_2g   1.00 -1.00  1.00 -1.00 -1.00  1.00  1.00 -1.00  1.00 -1.00 -1.00  1.00
E_1g   2.00  1.00 -1.00 -2.00  0.00  0.00  2.00  1.00 -1.00 -2.00  0.00  0.00
E_2g   2.00 -1.00 -1.00  2.00  0.00  0.00  2.00 -1.00 -1.00  2.00  0.00  0.00
A_1u   1.00  1.00  1.00  1.00  1.00  1.00 -1.00 -1.00 -1.00 -1.00 -1.00 -1.00
A_2u   1.00  1.00  1.00  1.00 -1.00 -1.00 -1.00 -1.00 -1.00 -1.00  1.00  1.00
B_1u   1.00 -1.00  1.00 -1.00  1.00 -1.00 -1.00  1.00 -1.00  1.00 -1.00  1.00
B_2u   1.00 -1.00  1.00 -1.00 -1.00  1.00 -1.00  1.00 -1.00  1.00  1.00 -1.00
E_1u   2.00  1.00 -1.00 -2.00  0.00  0.00 -2.00 -1.00  1.00  2.00  0.00  0.00
E_2u   2.00 -1.00 -1.00  2.00  0.00  0.00 -2.00  1.00  1.00 -2.00  0.00  0.00

     the symmetry operations in each class and the name of the first element:

     E        1
          identity                                               
     2C6      5    6
           60 deg rotation - cryst. axis [0,0,1]                 
     2C3      7    8
          120 deg rotation - cryst. axis [0,0,1]                 
     C2       2
          180 deg rotation - cart. axis [0,0,1]                  
     3C2'     4   12   11
          180 deg rotation - cart. axis [1,0,0]                  
     3C2''    3    9   10
          180 deg rotation - cart. axis [0,1,0]                  
     i       13
          inversion                                              
     2S3     17   18
          inv.  60 deg rotation - cryst. axis [0,0,1]            
     2S6     19   20
          inv. 120 deg rotation - cryst. axis [0,0,1]            
     s_h     14
          inv. 180 deg rotation - cart. axis [0,0,1]             
     3s_d    16   24   23
          inv. 180 deg rotation - cart. axis [1,0,0]             
     3s_v    15   21   22
          inv. 180 deg rotation - cart. axis [0,1,0]             

   Cartesian axes

     site n.     atom                  positions (alat units)
         1           Sn  tau(   1) = (   0.0000000   0.5773503   2.1351428  )
         2           Sn  tau(   2) = (   0.5000000   0.2886751   2.1351428  )

   Crystallographic axes

     site n.     atom                  positions (cryst. coord.)
         1           Sn  tau(   1) = (  0.3333333  0.6666667  0.5000000  )
         2           Sn  tau(   2) = (  0.6666667  0.3333333  0.5000000  )

     number of k points=    61  Methfessel-Paxton smearing, width (Ry)=  0.0200
                       cart. coord. in units 2pi/alat
        k(    1) = (   0.0000000   0.0000000   0.0000000), wk =   0.0034722
        k(    2) = (   0.0000000   0.0481125   0.0000000), wk =   0.0208333
        k(    3) = (   0.0000000   0.0962250   0.0000000), wk =   0.0208333
        k(    4) = (   0.0000000   0.1443376   0.0000000), wk =   0.0208333
        k(    5) = (   0.0000000   0.1924501   0.0000000), wk =   0.0208333
        k(    6) = (   0.0000000   0.2405626   0.0000000), wk =   0.0208333
        k(    7) = (   0.0000000   0.2886751   0.0000000), wk =   0.0208333
        k(    8) = (   0.0000000   0.3367877   0.0000000), wk =   0.0208333
        k(    9) = (   0.0000000   0.3849002   0.0000000), wk =   0.0208333
        k(   10) = (   0.0000000   0.4330127   0.0000000), wk =   0.0208333
        k(   11) = (   0.0000000   0.4811252   0.0000000), wk =   0.0208333
        k(   12) = (   0.0000000   0.5292377   0.0000000), wk =   0.0208333
        k(   13) = (   0.0000000  -0.5773503   0.0000000), wk =   0.0104167
        k(   14) = (   0.0416667   0.0721688   0.0000000), wk =   0.0208333
        k(   15) = (   0.0416667   0.1202813   0.0000000), wk =   0.0416667
        k(   16) = (   0.0416667   0.1683938   0.0000000), wk =   0.0416667
        k(   17) = (   0.0416667   0.2165064   0.0000000), wk =   0.0416667
        k(   18) = (   0.0416667   0.2646189   0.0000000), wk =   0.0416667
        k(   19) = (   0.0416667   0.3127314   0.0000000), wk =   0.0416667
        k(   20) = (   0.0416667   0.3608439   0.0000000), wk =   0.0416667
        k(   21) = (   0.0416667   0.4089564   0.0000000), wk =   0.0416667
        k(   22) = (   0.0416667   0.4570690   0.0000000), wk =   0.0416667
        k(   23) = (   0.0416667   0.5051815   0.0000000), wk =   0.0416667
        k(   24) = (   0.0416667   0.5532940   0.0000000), wk =   0.0416667
        k(   25) = (   0.0833333   0.1443376   0.0000000), wk =   0.0208333
        k(   26) = (   0.0833333   0.1924501   0.0000000), wk =   0.0416667
        k(   27) = (   0.0833333   0.2405626   0.0000000), wk =   0.0416667
        k(   28) = (   0.0833333   0.2886751   0.0000000), wk =   0.0416667
        k(   29) = (   0.0833333   0.3367877   0.0000000), wk =   0.0416667
        k(   30) = (   0.0833333   0.3849002   0.0000000), wk =   0.0416667
        k(   31) = (   0.0833333   0.4330127   0.0000000), wk =   0.0416667
        k(   32) = (   0.0833333   0.4811252   0.0000000), wk =   0.0416667
        k(   33) = (   0.0833333   0.5292377   0.0000000), wk =   0.0416667
        k(   34) = (   0.0833333   0.5773503   0.0000000), wk =   0.0208333
        k(   35) = (   0.1250000   0.2165064   0.0000000), wk =   0.0208333
        k(   36) = (   0.1250000   0.2646189   0.0000000), wk =   0.0416667
        k(   37) = (   0.1250000   0.3127314   0.0000000), wk =   0.0416667
        k(   38) = (   0.1250000   0.3608439   0.0000000), wk =   0.0416667
        k(   39) = (   0.1250000   0.4089564   0.0000000), wk =   0.0416667
        k(   40) = (   0.1250000   0.4570690   0.0000000), wk =   0.0416667
        k(   41) = (   0.1250000   0.5051815   0.0000000), wk =   0.0416667
        k(   42) = (   0.1250000   0.5532940   0.0000000), wk =   0.0416667
        k(   43) = (   0.1666667   0.2886751   0.0000000), wk =   0.0208333
        k(   44) = (   0.1666667   0.3367877   0.0000000), wk =   0.0416667
        k(   45) = (   0.1666667   0.3849002   0.0000000), wk =   0.0416667
        k(   46) = (   0.1666667   0.4330127   0.0000000), wk =   0.0416667
        k(   47) = (   0.1666667   0.4811252   0.0000000), wk =   0.0416667
        k(   48) = (   0.1666667   0.5292377   0.0000000), wk =   0.0416667
        k(   49) = (   0.1666667   0.5773503   0.0000000), wk =   0.0208333
        k(   50) = (   0.2083333   0.3608439   0.0000000), wk =   0.0208333
        k(   51) = (   0.2083333   0.4089564   0.0000000), wk =   0.0416667
        k(   52) = (   0.2083333   0.4570690   0.0000000), wk =   0.0416667
        k(   53) = (   0.2083333   0.5051815   0.0000000), wk =   0.0416667
        k(   54) = (   0.2083333   0.5532940   0.0000000), wk =   0.0416667
        k(   55) = (   0.2500000   0.4330127   0.0000000), wk =   0.0208333
        k(   56) = (   0.2500000   0.4811252   0.0000000), wk =   0.0416667
        k(   57) = (   0.2500000   0.5292377   0.0000000), wk =   0.0416667
        k(   58) = (   0.2500000   0.5773503   0.0000000), wk =   0.0208333
        k(   59) = (   0.2916667   0.5051815   0.0000000), wk =   0.0208333
        k(   60) = (   0.2916667   0.5532940   0.0000000), wk =   0.0416667
        k(   61) = (   0.3333333   0.5773503   0.0000000), wk =   0.0069444

                       cryst. coord.
        k(    1) = (   0.0000000   0.0000000   0.0000000), wk =   0.0034722
        k(    2) = (   0.0000000   0.0416667   0.0000000), wk =   0.0208333
        k(    3) = (   0.0000000   0.0833333   0.0000000), wk =   0.0208333
        k(    4) = (   0.0000000   0.1250000   0.0000000), wk =   0.0208333
        k(    5) = (   0.0000000   0.1666667   0.0000000), wk =   0.0208333
        k(    6) = (   0.0000000   0.2083333   0.0000000), wk =   0.0208333
        k(    7) = (   0.0000000   0.2500000   0.0000000), wk =   0.0208333
        k(    8) = (   0.0000000   0.2916667   0.0000000), wk =   0.0208333
        k(    9) = (   0.0000000   0.3333333   0.0000000), wk =   0.0208333
        k(   10) = (   0.0000000   0.3750000   0.0000000), wk =   0.0208333
        k(   11) = (   0.0000000   0.4166667   0.0000000), wk =   0.0208333
        k(   12) = (   0.0000000   0.4583333   0.0000000), wk =   0.0208333
        k(   13) = (   0.0000000  -0.5000000   0.0000000), wk =   0.0104167
        k(   14) = (   0.0416667   0.0416667   0.0000000), wk =   0.0208333
        k(   15) = (   0.0416667   0.0833333   0.0000000), wk =   0.0416667
        k(   16) = (   0.0416667   0.1250000   0.0000000), wk =   0.0416667
        k(   17) = (   0.0416667   0.1666667   0.0000000), wk =   0.0416667
        k(   18) = (   0.0416667   0.2083333   0.0000000), wk =   0.0416667
        k(   19) = (   0.0416667   0.2500000   0.0000000), wk =   0.0416667
        k(   20) = (   0.0416667   0.2916667   0.0000000), wk =   0.0416667
        k(   21) = (   0.0416667   0.3333333   0.0000000), wk =   0.0416667
        k(   22) = (   0.0416667   0.3750000   0.0000000), wk =   0.0416667
        k(   23) = (   0.0416667   0.4166667   0.0000000), wk =   0.0416667
        k(   24) = (   0.0416667   0.4583333   0.0000000), wk =   0.0416667
        k(   25) = (   0.0833333   0.0833333   0.0000000), wk =   0.0208333
        k(   26) = (   0.0833333   0.1250000   0.0000000), wk =   0.0416667
        k(   27) = (   0.0833333   0.1666667   0.0000000), wk =   0.0416667
        k(   28) = (   0.0833333   0.2083333   0.0000000), wk =   0.0416667
        k(   29) = (   0.0833333   0.2500000   0.0000000), wk =   0.0416667
        k(   30) = (   0.0833333   0.2916667   0.0000000), wk =   0.0416667
        k(   31) = (   0.0833333   0.3333333   0.0000000), wk =   0.0416667
        k(   32) = (   0.0833333   0.3750000   0.0000000), wk =   0.0416667
        k(   33) = (   0.0833333   0.4166667   0.0000000), wk =   0.0416667
        k(   34) = (   0.0833333   0.4583333   0.0000000), wk =   0.0208333
        k(   35) = (   0.1250000   0.1250000   0.0000000), wk =   0.0208333
        k(   36) = (   0.1250000   0.1666667   0.0000000), wk =   0.0416667
        k(   37) = (   0.1250000   0.2083333   0.0000000), wk =   0.0416667
        k(   38) = (   0.1250000   0.2500000   0.0000000), wk =   0.0416667
        k(   39) = (   0.1250000   0.2916667   0.0000000), wk =   0.0416667
        k(   40) = (   0.1250000   0.3333333   0.0000000), wk =   0.0416667
        k(   41) = (   0.1250000   0.3750000   0.0000000), wk =   0.0416667
        k(   42) = (   0.1250000   0.4166667   0.0000000), wk =   0.0416667
        k(   43) = (   0.1666667   0.1666667   0.0000000), wk =   0.0208333
        k(   44) = (   0.1666667   0.2083333   0.0000000), wk =   0.0416667
        k(   45) = (   0.1666667   0.2500000   0.0000000), wk =   0.0416667
        k(   46) = (   0.1666667   0.2916667   0.0000000), wk =   0.0416667
        k(   47) = (   0.1666667   0.3333333   0.0000000), wk =   0.0416667
        k(   48) = (   0.1666667   0.3750000   0.0000000), wk =   0.0416667
        k(   49) = (   0.1666667   0.4166667   0.0000000), wk =   0.0208333
        k(   50) = (   0.2083333   0.2083333   0.0000000), wk =   0.0208333
        k(   51) = (   0.2083333   0.2500000   0.0000000), wk =   0.0416667
        k(   52) = (   0.2083333   0.2916667   0.0000000), wk =   0.0416667
        k(   53) = (   0.2083333   0.3333333   0.0000000), wk =   0.0416667
        k(   54) = (   0.2083333   0.3750000   0.0000000), wk =   0.0416667
        k(   55) = (   0.2500000   0.2500000   0.0000000), wk =   0.0208333
        k(   56) = (   0.2500000   0.2916667   0.0000000), wk =   0.0416667
        k(   57) = (   0.2500000   0.3333333   0.0000000), wk =   0.0416667
        k(   58) = (   0.2500000   0.3750000   0.0000000), wk =   0.0208333
        k(   59) = (   0.2916667   0.2916667   0.0000000), wk =   0.0208333
        k(   60) = (   0.2916667   0.3333333   0.0000000), wk =   0.0416667
        k(   61) = (   0.3333333   0.3333333   0.0000000), wk =   0.0069444

     Dense  grid:   455489 G-vectors     FFT dimensions: (  64,  64, 270)

     Smooth grid:   160939 G-vectors     FFT dimensions: (  45,  45, 192)

     Dynamical RAM for                 wfc:       0.92 MB

     Dynamical RAM for     wfc (w. buffer):      57.10 MB

     Dynamical RAM for           str. fact:       1.16 MB

     Dynamical RAM for           local pot:       0.00 MB

     Dynamical RAM for          nlocal pot:       1.84 MB

     Dynamical RAM for                qrad:       1.76 MB

     Dynamical RAM for          rho,v,vnew:       7.69 MB

     Dynamical RAM for               rhoin:       2.56 MB

     Dynamical RAM for            rho*nmix:      18.53 MB

     Dynamical RAM for           G-vectors:       4.55 MB

     Dynamical RAM for          h,s,v(r/c):       0.06 MB

     Dynamical RAM for          <psi|beta>:       0.01 MB

     Dynamical RAM for                 psi:       1.84 MB

     Dynamical RAM for                hpsi:       1.84 MB

     Dynamical RAM for                spsi:       1.84 MB

     Dynamical RAM for      wfcinit/wfcrot:       1.85 MB

     Dynamical RAM for           addusdens:     217.76 MB

     Estimated static dynamical RAM per process >      86.01 MB

     Estimated max dynamical RAM per process >     322.30 MB

     Estimated total dynamical RAM >       1.89 GB

     Initial potential from superposition of free atoms

     starting charge      25.9999, renormalised to      28.0000

     negative rho (up, down):  6.188E-04 0.000E+00
     Starting wfcs are   18 randomized atomic wfcs

     total cpu time spent up to now is       87.9 secs

     Self-consistent Calculation

     iteration #  1     ecut=    60.00 Ry     beta= 0.70
     Davidson diagonalization with overlap

---- Real-time Memory Report at c_bands before calling an iterative solver
           300 MiB given to the printing process from OS
             0 MiB allocation reported by mallinfo(arena+hblkhd)
          5380 MiB available memory on the node where the printing process lives
------------------
     ethr =  1.00E-02,  avg # of iterations =  7.5

     negative rho (up, down):  1.358E-06 0.000E+00

     total cpu time spent up to now is      571.1 secs

     total energy              =    -325.43829482 Ry
     estimated scf accuracy    <       2.48440233 Ry

     iteration #  2     ecut=    60.00 Ry     beta= 0.70
     Davidson diagonalization with overlap

---- Real-time Memory Report at c_bands before calling an iterative solver
           374 MiB given to the printing process from OS
             0 MiB allocation reported by mallinfo(arena+hblkhd)
          5139 MiB available memory on the node where the printing process lives
------------------
     ethr =  8.87E-03,  avg # of iterations =  2.0

     negative rho (up, down):  1.139E-05 0.000E+00

     total cpu time spent up to now is      795.1 secs

     total energy              =    -326.33416975 Ry
     estimated scf accuracy    <       0.36380850 Ry

     iteration #  3     ecut=    60.00 Ry     beta= 0.70
     Davidson diagonalization with overlap

---- Real-time Memory Report at c_bands before calling an iterative solver
           375 MiB given to the printing process from OS
             0 MiB allocation reported by mallinfo(arena+hblkhd)
          5005 MiB available memory on the node where the printing process lives
------------------
     ethr =  1.30E-03,  avg # of iterations =  2.3

     negative rho (up, down):  6.783E-05 0.000E+00

     total cpu time spent up to now is     1027.4 secs

     total energy              =    -326.39068806 Ry
     estimated scf accuracy    <       0.00524194 Ry

     iteration #  4     ecut=    60.00 Ry     beta= 0.70
     Davidson diagonalization with overlap

---- Real-time Memory Report at c_bands before calling an iterative solver
           376 MiB given to the printing process from OS
             0 MiB allocation reported by mallinfo(arena+hblkhd)
          5115 MiB available memory on the node where the printing process lives
------------------
     ethr =  1.87E-05,  avg # of iterations =  8.4

     negative rho (up, down):  8.427E-05 0.000E+00

     total cpu time spent up to now is     1534.8 secs

     total energy              =    -326.39254839 Ry
     estimated scf accuracy    <       0.00067516 Ry

     iteration #  5     ecut=    60.00 Ry     beta= 0.70
     Davidson diagonalization with overlap

---- Real-time Memory Report at c_bands before calling an iterative solver
           377 MiB given to the printing process from OS
             0 MiB allocation reported by mallinfo(arena+hblkhd)
          5114 MiB available memory on the node where the printing process lives
------------------
     ethr =  2.41E-06,  avg # of iterations =  5.1

     negative rho (up, down):  8.673E-05 0.000E+00

     total cpu time spent up to now is     1889.3 secs

     total energy              =    -326.39268346 Ry
     estimated scf accuracy    <       0.00000125 Ry

     iteration #  6     ecut=    60.00 Ry     beta= 0.70
     Davidson diagonalization with overlap

---- Real-time Memory Report at c_bands before calling an iterative solver
           378 MiB given to the printing process from OS
             0 MiB allocation reported by mallinfo(arena+hblkhd)
          5088 MiB available memory on the node where the printing process lives
------------------
     ethr =  4.46E-09,  avg # of iterations =  4.0

     negative rho (up, down):  8.724E-05 0.000E+00

     total cpu time spent up to now is     2211.2 secs

     total energy              =    -326.39268463 Ry
     estimated scf accuracy    <       0.00000122 Ry

     iteration #  7     ecut=    60.00 Ry     beta= 0.70
     Davidson diagonalization with overlap

---- Real-time Memory Report at c_bands before calling an iterative solver
           379 MiB given to the printing process from OS
             0 MiB allocation reported by mallinfo(arena+hblkhd)
          5087 MiB available memory on the node where the printing process lives
------------------
     ethr =  4.35E-09,  avg # of iterations =  2.0

     negative rho (up, down):  8.722E-05 0.000E+00

     total cpu time spent up to now is     2432.5 secs

     End of self-consistent calculation

          k = 0.0000 0.0000 0.0000 ( 20025 PWs)   bands (ev):

   -24.1144 -24.0978 -24.0978 -23.9971 -23.9971 -23.8359 -23.8359 -23.7665
   -23.7665 -23.7091 -12.2066  -4.2921  -3.7001  -3.3517  -3.3517   0.6655
     0.6655   1.0087

     occupation numbers 
     1.0000   1.0000   1.0000   1.0000   1.0000   1.0000   1.0000   1.0000
     1.0000   1.0000   1.0000   1.0000   1.0000   1.0000   1.0000  -0.0000
    -0.0000  -0.0000

          k = 0.0000 0.0481 0.0000 ( 20035 PWs)   bands (ev):

   -24.1154 -24.1024 -24.1010 -23.9975 -23.9964 -23.8317 -23.8309 -23.7673
   -23.7662 -23.7090 -12.1918  -4.2767  -4.1378  -3.3853  -2.9324   0.6469
     0.7290   1.0316

     occupation numbers 
     1.0000   1.0000   1.0000   1.0000   1.0000   1.0000   1.0000   1.0000
     1.0000   1.0000   1.0000   1.0000   1.0000   1.0000   1.0017  -0.0000
    -0.0000  -0.0000

          k = 0.0000 0.0962 0.0000 ( 20005 PWs)   bands (ev):

   -24.1219 -24.1149 -24.1057 -23.9986 -23.9944 -23.8202 -23.8170 -23.7696
   -23.7651 -23.7083 -12.1474  -4.7149  -4.2308  -3.4792  -2.4207   0.6221
     0.9126   1.0925

     occupation numbers 
     1.0000   1.0000   1.0000   1.0000   1.0000   1.0000   1.0000   1.0000
     1.0000   1.0000   1.0000   1.0000   1.0000   1.0000   0.8869  -0.0000
    -0.0000  -0.0000

          k = 0.0000 0.1443 0.0000 ( 20065 PWs)   bands (ev):

   -24.1373 -24.1328 -24.1062 -24.0004 -23.9911 -23.8044 -23.7970 -23.7734
   -23.7633 -23.7068 -12.0737  -5.2941  -4.1548  -3.6166  -1.9861   0.6589
     1.1839   1.1992

     occupation numbers 
     1.0000   1.0000   1.0000   1.0000   1.0000   1.0000   1.0000   1.0000
     1.0000   1.0000   1.0000   1.0000   1.0000   1.0000  -0.0307  -0.0000
    -0.0000  -0.0000

          k = 0.0000 0.1925 0.0000 ( 20113 PWs)   bands (ev):

   -24.1571 -24.1532 -24.1047 -24.0026 -23.9866 -23.7878 -23.7785 -23.7738
   -23.7611 -23.7034 -11.9711  -5.8625  -4.0493  -3.7783  -1.6850   0.8278
     1.3075   1.4029

     occupation numbers 
     1.0000   1.0000   1.0000   1.0000   1.0000   1.0000   1.0000   1.0000
     1.0000   1.0000   1.0000   1.0000   1.0000   1.0000  -0.0044  -0.0000
    -0.0000  -0.0000

          k = 0.0000 0.2406 0.0000 ( 20071 PWs)   bands (ev):

   -24.1781 -24.1743 -24.1025 -24.0052 -23.9812 -23.7847 -23.7735 -23.7585
   -23.7496 -23.6970 -11.8401  -6.4137  -3.9477  -3.9154  -1.5380   1.0114
     1.1498   1.4781

     occupation numbers 
     1.0000   1.0000   1.0000   1.0000   1.0000   1.0000   1.0000   1.0000
     1.0000   1.0000   1.0000   1.0000   1.0000   1.0000  -0.0004  -0.0000
    -0.0000  -0.0000

          k = 0.0000 0.2887 0.0000 ( 20087 PWs)   bands (ev):

   -24.1985 -24.1945 -24.0999 -24.0079 -23.9749 -23.7918 -23.7637 -23.7558
   -23.7259 -23.6868 -11.6821  -6.9423  -4.1120  -3.7551  -1.5092   0.6050
     1.5060   1.7873

     occupation numbers 
     1.0000   1.0000   1.0000   1.0000   1.0000   1.0000   1.0000   1.0000
     1.0000   1.0000   1.0000   1.0000   1.0000   1.0000  -0.0002  -0.0000
    -0.0000  -0.0000

          k = 0.0000 0.3368 0.0000 ( 20109 PWs)   bands (ev):

   -24.2172 -24.2129 -24.0972 -24.0105 -23.9680 -23.7994 -23.7584 -23.7532
   -23.7041 -23.6740 -11.4992  -7.4433  -4.2623  -3.5710  -1.5438   0.1988
     1.7600   2.3194

     occupation numbers 
     1.0000   1.0000   1.0000   1.0000   1.0000   1.0000   1.0000   1.0000
     1.0000   1.0000   1.0000   1.0000   1.0000   1.0000  -0.0005  -0.0000
    -0.0000  -0.0000

          k = 0.0000 0.3849 0.0000 ( 20145 PWs)   bands (ev):

   -24.2334 -24.2287 -24.0946 -24.0129 -23.9611 -23.8070 -23.7561 -23.7508
   -23.6851 -23.6606 -11.2955  -7.9103  -4.3920  -3.3677  -1.6022  -0.1945
     2.0037   2.9335

     occupation numbers 
     1.0000   1.0000   1.0000   1.0000   1.0000   1.0000   1.0000   1.0000
     1.0000   1.0000   1.0000   1.0000   1.0000   1.0000  -0.0013  -0.0000
    -0.0000  -0.0000

          k = 0.0000 0.4330 0.0000 ( 20161 PWs)   bands (ev):

   -24.2466 -24.2414 -24.0923 -24.0150 -23.9546 -23.8142 -23.7554 -23.7488
   -23.6696 -23.6487 -11.0787  -8.3336  -4.4967  -3.1539  -1.6618  -0.5610
     2.2674   3.1548

     occupation numbers 
     1.0000   1.0000   1.0000   1.0000   1.0000   1.0000   1.0000   1.0000
     1.0000   1.0000   1.0000   1.0000   1.0000   1.0000  -0.0032  -0.0000
    -0.0000  -0.0000

          k = 0.0000 0.4811 0.0000 ( 20157 PWs)   bands (ev):

   -24.2563 -24.2507 -24.0906 -24.0165 -23.9490 -23.8202 -23.7554 -23.7473
   -23.6581 -23.6394 -10.8658  -8.6950  -4.5735  -2.9463  -1.7104  -0.8799
     2.5545   3.3642

     occupation numbers 
     1.0000   1.0000   1.0000   1.0000   1.0000   1.0000   1.0000   1.0000
     1.0000   1.0000   1.0000   1.0000   1.0000   1.0014  -0.0061  -0.0000
    -0.0000  -0.0000

          k = 0.0000 0.5292 0.0000 ( 20142 PWs)   bands (ev):

   -24.2622 -24.2564 -24.0895 -24.0175 -23.9453 -23.8242 -23.7556 -23.7463
   -23.6511 -23.6335 -10.6926  -8.9577  -4.6203  -2.7797  -1.7416  -1.1142
     2.8577   3.5177

     occupation numbers 
     1.0000   1.0000   1.0000   1.0000   1.0000   1.0000   1.0000   1.0000
     1.0000   1.0000   1.0000   1.0000   1.0000   1.0126  -0.0090  -0.0000
    -0.0000  -0.0000

          k = 0.0000-0.5774 0.0000 ( 20152 PWs)   bands (ev):

   -24.2642 -24.2583 -24.0891 -24.0178 -23.9440 -23.8257 -23.7557 -23.7460
   -23.6487 -23.6316 -10.6213  -9.0588  -4.6360  -2.7118  -1.7523  -1.2048
     3.0795   3.3720

     occupation numbers 
     1.0000   1.0000   1.0000   1.0000   1.0000   1.0000   1.0000   1.0000
     1.0000   1.0000   1.0000   1.0000   1.0000   1.0230  -0.0101  -0.0000
    -0.0000  -0.0000

          k = 0.0417 0.0722 0.0000 ( 20017 PWs)   bands (ev):

   -24.1200 -24.1075 -24.1075 -23.9983 -23.9951 -23.8239 -23.8214 -23.7689
   -23.7654 -23.7086 -12.1622  -4.5582  -4.2461  -3.4528  -2.5491   0.6169
     0.8608   1.0728

     occupation numbers 
     1.0000   1.0000   1.0000   1.0000   1.0000   1.0000   1.0000   1.0000
     1.0000   1.0000   1.0000   1.0000   1.0000   1.0000   1.0255  -0.0000
    -0.0000  -0.0000

          k = 0.0417 0.1203 0.0000 ( 20039 PWs)   bands (ev):

   -24.1346 -24.1204 -24.1085 -23.9997 -23.9924 -23.8103 -23.8047 -23.7720
   -23.7639 -23.7075 -12.1032  -5.0868  -4.1851  -3.5770  -2.1097   0.5988
     1.1161   1.1473

     occupation numbers 
     1.0000   1.0000   1.0000   1.0000   1.0000   1.0000   1.0000   1.0000
     1.0000   1.0000   1.0000   1.0000   1.0000   1.0000   0.0749  -0.0000
    -0.0000  -0.0000

          k = 0.0417 0.1684 0.0000 ( 20081 PWs)   bands (ev):

   -24.1549 -24.1374 -24.1072 -24.0018 -23.9884 -23.7940 -23.7837 -23.7765
   -23.7619 -23.7049 -12.0150  -5.6352  -4.0943  -3.7365  -1.7416   0.6651
     1.2500   1.4731

     occupation numbers 
     1.0000   1.0000   1.0000   1.0000   1.0000   1.0000   1.0000   1.0000
     1.0000   1.0000   1.0000   1.0000   1.0000   1.0000  -0.0090  -0.0000
    -0.0000  -0.0000

          k = 0.0417 0.2165 0.0000 ( 20075 PWs)   bands (ev):

   -24.1771 -24.1562 -24.1050 -24.0042 -23.9834 -23.7822 -23.7784 -23.7610
   -23.7595 -23.6995 -11.8981  -6.1796  -3.9746  -3.9113  -1.5082   0.8780
     1.1811   1.3861

     occupation numbers 
     1.0000   1.0000   1.0000   1.0000   1.0000   1.0000   1.0000   1.0000
     1.0000   1.0000   1.0000   1.0000   1.0000   1.0000  -0.0002  -0.0000
    -0.0000  -0.0000

          k = 0.0417 0.2646 0.0000 ( 20107 PWs)   bands (ev):

   -24.1991 -24.1752 -24.1025 -24.0069 -23.9774 -23.7889 -23.7664 -23.7568
   -23.7385 -23.6901 -11.7535  -6.7093  -4.0861  -3.8273  -1.4152   0.7863
     1.2376   1.5679

     occupation numbers 
     1.0000   1.0000   1.0000   1.0000   1.0000   1.0000   1.0000   1.0000
     1.0000   1.0000   1.0000   1.0000   1.0000   1.0000  -0.0000  -0.0000
    -0.0000  -0.0000

          k = 0.0417 0.3127 0.0000 ( 20105 PWs)   bands (ev):

   -24.2197 -24.1931 -24.0997 -24.0096 -23.9707 -23.7964 -23.7592 -23.7541
   -23.7175 -23.6769 -11.5827  -7.2173  -4.2499  -3.6548  -1.4166   0.3834
     1.6167   1.8814

     occupation numbers 
     1.0000   1.0000   1.0000   1.0000   1.0000   1.0000   1.0000   1.0000
     1.0000   1.0000   1.0000   1.0000   1.0000   1.0000  -0.0000  -0.0000
    -0.0000  -0.0000

          k = 0.0417 0.3608 0.0000 ( 20127 PWs)   bands (ev):

   -24.2380 -24.2090 -24.0970 -24.0122 -23.9636 -23.8042 -23.7559 -23.7516
   -23.6989 -23.6619 -11.3887  -7.6969  -4.3949  -3.4604  -1.4626  -0.0139
     1.8849   2.4068

     occupation numbers 
     1.0000   1.0000   1.0000   1.0000   1.0000   1.0000   1.0000   1.0000
     1.0000   1.0000   1.0000   1.0000   1.0000   1.0000  -0.0001  -0.0000
    -0.0000  -0.0000

          k = 0.0417 0.4090 0.0000 ( 20135 PWs)   bands (ev):

   -24.2534 -24.2224 -24.0945 -24.0145 -23.9567 -23.8118 -23.7548 -23.7493
   -23.6831 -23.6476 -11.1770  -8.1399  -4.5159  -3.2504  -1.5212  -0.3929
     2.1422   3.0379

     occupation numbers 
     1.0000   1.0000   1.0000   1.0000   1.0000   1.0000   1.0000   1.0000
     1.0000   1.0000   1.0000   1.0000   1.0000   1.0000  -0.0003  -0.0000
    -0.0000  -0.0000

          k = 0.0417 0.4571 0.0000 ( 20146 PWs)   bands (ev):

   -24.2653 -24.2328 -24.0925 -24.0163 -23.9505 -23.8185 -23.7547 -23.7475
   -23.6709 -23.6358 -10.9589  -8.5330  -4.6093  -3.0365  -1.5751  -0.7370
     2.4189   3.2364

     occupation numbers 
     1.0000   1.0000   1.0000   1.0000   1.0000   1.0000   1.0000   1.0000
     1.0000   1.0000   1.0000   1.0000   1.0000   1.0003  -0.0008  -0.0000
    -0.0000  -0.0000

          k = 0.0417 0.5052 0.0000 ( 20148 PWs)   bands (ev):

   -24.2734 -24.2399 -24.0910 -24.0176 -23.9456 -23.8238 -23.7549 -23.7462
   -23.6625 -23.6274 -10.7590  -8.8504  -4.6728  -2.8429  -1.6148  -1.0190
     2.7161   3.3806

     occupation numbers 
     1.0000   1.0000   1.0000   1.0000   1.0000   1.0000   1.0000   1.0000
     1.0000   1.0000   1.0000   1.0000   1.0000   1.0061  -0.0016  -0.0000
    -0.0000  -0.0000

          k = 0.0417 0.5533 0.0000 ( 20150 PWs)   bands (ev):

   -24.2775 -24.2435 -24.0903 -24.0182 -23.9429 -23.8266 -23.7551 -23.7456
   -23.6582 -23.6230 -10.6275  -9.0409  -4.7049  -2.7171  -1.6357  -1.1894
     3.0111   3.4437

     occupation numbers 
     1.0000   1.0000   1.0000   1.0000   1.0000   1.0000   1.0000   1.0000
     1.0000   1.0000   1.0000   1.0000   1.0000   1.0221  -0.0022  -0.0000
    -0.0000  -0.0000

          k = 0.0833 0.1443 0.0000 ( 20061 PWs)   bands (ev):

   -24.1547 -24.1292 -24.1100 -24.0015 -23.9890 -23.7962 -23.7873 -23.7758
   -23.7622 -23.7052 -12.0296  -5.5498  -4.1094  -3.7360  -1.7439   0.5765
     1.2309   1.4654

     occupation numbers 
     1.0000   1.0000   1.0000   1.0000   1.0000   1.0000   1.0000   1.0000
     1.0000   1.0000   1.0000   1.0000   1.0000   1.0000  -0.0092  -0.0000
    -0.0000  -0.0000

          k = 0.0833 0.1925 0.0000 ( 20087 PWs)   bands (ev):

   -24.1774 -24.1430 -24.1090 -24.0039 -23.9843 -23.7810 -23.7805 -23.7682
   -23.7599 -23.7003 -11.9272  -6.0453  -4.0043  -3.9257  -1.4236   0.6336
     1.2742   1.3446

     occupation numbers 
     1.0000   1.0000   1.0000   1.0000   1.0000   1.0000   1.0000   1.0000
     1.0000   1.0000   1.0000   1.0000   1.0000   1.0000  -0.0000  -0.0000
    -0.0000  -0.0000

          k = 0.0833 0.2406 0.0000 ( 20121 PWs)   bands (ev):

   -24.2005 -24.1587 -24.1068 -24.0066 -23.9786 -23.7874 -23.7667 -23.7572
   -23.7497 -23.6908 -11.7965  -6.5468  -4.1225  -3.8709  -1.2192   0.8376
     0.9081   1.4894

     occupation numbers 
     1.0000   1.0000   1.0000   1.0000   1.0000   1.0000   1.0000   1.0000
     1.0000   1.0000   1.0000   1.0000   1.0000   1.0000  -0.0000  -0.0000
    -0.0000  -0.0000

          k = 0.0833 0.2887 0.0000 ( 20106 PWs)   bands (ev):

   -24.2228 -24.1745 -24.1043 -24.0094 -23.9720 -23.7948 -23.7579 -23.7544
   -23.7320 -23.6765 -11.6387  -7.0404  -4.3108  -3.7111  -1.1425   0.5238
     1.1989   1.6693

     occupation numbers 
     1.0000   1.0000   1.0000   1.0000   1.0000   1.0000   1.0000   1.0000
     1.0000   1.0000   1.0000   1.0000   1.0000   1.0000  -0.0000  -0.0000
    -0.0000  -0.0000

          k = 0.0833 0.3368 0.0000 ( 20114 PWs)   bands (ev):

   -24.2430 -24.1892 -24.1016 -24.0122 -23.9648 -23.8027 -23.7537 -23.7517
   -23.7153 -23.6596 -11.4560  -7.5160  -4.4806  -3.5274  -1.1497   0.1356
     1.6525   1.9072

     occupation numbers 
     1.0000   1.0000   1.0000   1.0000   1.0000   1.0000   1.0000   1.0000
     1.0000   1.0000   1.0000   1.0000   1.0000   1.0000  -0.0000  -0.0000
    -0.0000  -0.0000

          k = 0.0833 0.3849 0.0000 ( 20126 PWs)   bands (ev):

   -24.2604 -24.2022 -24.0990 -24.0147 -23.9574 -23.8107 -23.7524 -23.7492
   -23.7004 -23.6430 -11.2521  -7.9650  -4.6256  -3.3242  -1.1936  -0.2439
     2.0231   2.3280

     occupation numbers 
     1.0000   1.0000   1.0000   1.0000   1.0000   1.0000   1.0000   1.0000
     1.0000   1.0000   1.0000   1.0000   1.0000   1.0000  -0.0000  -0.0000
    -0.0000  -0.0000

          k = 0.0833 0.4330 0.0000 ( 20149 PWs)   bands (ev):

   -24.2745 -24.2127 -24.0967 -24.0168 -23.9503 -23.8184 -23.7524 -23.7471
   -23.6881 -23.6286 -11.0347  -8.3761  -4.7417  -3.1099  -1.2454  -0.6007
     2.3074   3.0819

     occupation numbers 
     1.0000   1.0000   1.0000   1.0000   1.0000   1.0000   1.0000   1.0000
     1.0000   1.0000   1.0000   1.0000   1.0000   1.0001  -0.0000  -0.0000
    -0.0000  -0.0000

          k = 0.0833 0.4811 0.0000 ( 20151 PWs)   bands (ev):

   -24.2848 -24.2205 -24.0949 -24.0184 -23.9443 -23.8248 -23.7529 -23.7455
   -23.6789 -23.6177 -10.8201  -8.7307  -4.8262  -2.9007  -1.2898  -0.9142
     2.5977   3.1654

     occupation numbers 
     1.0000   1.0000   1.0000   1.0000   1.0000   1.0000   1.0000   1.0000
     1.0000   1.0000   1.0000   1.0000   1.0000   1.0028  -0.0000  -0.0000
    -0.0000  -0.0000

          k = 0.0833 0.5292 0.0000 ( 20157 PWs)   bands (ev):

   -24.2912 -24.2253 -24.0938 -24.0194 -23.9402 -23.8292 -23.7533 -23.7445
   -23.6732 -23.6109 -10.6439  -8.9915  -4.8775  -2.7312  -1.3189  -1.1473
     2.9000   3.1852

     occupation numbers 
     1.0000   1.0000   1.0000   1.0000   1.0000   1.0000   1.0000   1.0000
     1.0000   1.0000   1.0000   1.0000   1.0000   1.0198  -0.0000  -0.0000
    -0.0000  -0.0000

          k = 0.0833 0.5774 0.0000 ( 20154 PWs)   bands (ev):

   -24.2933 -24.2269 -24.0934 -24.0198 -23.9387 -23.8308 -23.7535 -23.7442
   -23.6713 -23.6085 -10.5706  -9.0930  -4.8947  -2.6615  -1.3289  -1.2384
     3.1175   3.1865

     occupation numbers 
     1.0000   1.0000   1.0000   1.0000   1.0000   1.0000   1.0000   1.0000
     1.0000   1.0000   1.0000   1.0000   1.0000   1.0312  -0.0000  -0.0000
    -0.0000  -0.0000

          k = 0.1250 0.2165 0.0000 ( 20099 PWs)   bands (ev):

   -24.2010 -24.1517 -24.1096 -24.0065 -23.9789 -23.7870 -23.7659 -23.7573
   -23.7547 -23.6909 -11.8108  -6.4874  -4.1460  -3.8855  -1.1081   0.6523
     0.9515   1.4693

     occupation numbers 
     1.0000   1.0000   1.0000   1.0000   1.0000   1.0000   1.0000   1.0000
     1.0000   1.0000   1.0000   1.0000   1.0000   1.0000  -0.0000  -0.0000
    -0.0000  -0.0000

          k = 0.1250 0.2646 0.0000 ( 20119 PWs)   bands (ev):

   -24.2243 -24.1626 -24.1087 -24.0094 -23.9725 -23.7941 -23.7545 -23.7540
   -23.7433 -23.6759 -11.6668  -6.9405  -4.3675  -3.7394  -0.8776   0.6010
     0.8053   1.6246

     occupation numbers 
     1.0000   1.0000   1.0000   1.0000   1.0000   1.0000   1.0000   1.0000
     1.0000   1.0000   1.0000   1.0000   1.0000   1.0000  -0.0000  -0.0000
    -0.0000  -0.0000

          k = 0.1250 0.3127 0.0000 ( 20122 PWs)   bands (ev):

   -24.2460 -24.1740 -24.1070 -24.0124 -23.9651 -23.8021 -23.7516 -23.7490
   -23.7298 -23.6577 -11.4966  -7.3909  -4.5728  -3.5678  -0.7737   0.2367
     1.1319   1.8112

     occupation numbers 
     1.0000   1.0000   1.0000   1.0000   1.0000   1.0000   1.0000   1.0000
     1.0000   1.0000   1.0000   1.0000   1.0000   1.0000  -0.0000  -0.0000
    -0.0000  -0.0000

          k = 0.1250 0.3608 0.0000 ( 20112 PWs)   bands (ev):

   -24.2653 -24.1849 -24.1048 -24.0152 -23.9573 -23.8106 -23.7489 -23.7480
   -23.7162 -23.6393 -11.3028  -7.8278  -4.7518  -3.3741  -0.7629  -0.1293
     1.5932   2.0316

     occupation numbers 
     1.0000   1.0000   1.0000   1.0000   1.0000   1.0000   1.0000   1.0000
     1.0000   1.0000   1.0000   1.0000   1.0000   1.0000  -0.0000  -0.0000
    -0.0000  -0.0000

          k = 0.1250 0.4090 0.0000 ( 20146 PWs)   bands (ev):

   -24.2814 -24.1944 -24.1027 -24.0176 -23.9494 -23.8190 -23.7484 -23.7465
   -23.7043 -23.6228 -11.0906  -8.2404  -4.8990  -3.1640  -0.7935  -0.4846
     2.1092   2.3068

     occupation numbers 
     1.0000   1.0000   1.0000   1.0000   1.0000   1.0000   1.0000   1.0000
     1.0000   1.0000   1.0000   1.0000   1.0000   1.0000  -0.0000  -0.0000
    -0.0000  -0.0000

          k = 0.1250 0.4571 0.0000 ( 20145 PWs)   bands (ev):

   -24.2938 -24.2019 -24.1008 -24.0196 -23.9422 -23.8268 -23.7493 -23.7445
   -23.6948 -23.6095 -10.8702  -8.6141  -5.0114  -2.9481  -0.8331  -0.8134
     2.4958   2.7704

     occupation numbers 
     1.0000   1.0000   1.0000   1.0000   1.0000   1.0000   1.0000   1.0000
     1.0000   1.0000   1.0000   1.0000   1.0000   1.0013  -0.0000  -0.0000
    -0.0000  -0.0000

          k = 0.1250 0.5052 0.0000 ( 20141 PWs)   bands (ev):

   -24.3023 -24.2071 -24.0994 -24.0210 -23.9364 -23.8329 -23.7502 -23.7432
   -23.6882 -23.6003 -10.6653  -8.9228  -5.0871  -2.7498  -1.0889  -0.8656
     2.8025   2.9217

     occupation numbers 
     1.0000   1.0000   1.0000   1.0000   1.0000   1.0000   1.0000   1.0000
     1.0000   1.0000   1.0000   1.0000   1.0000   1.0168  -0.0000  -0.0000
    -0.0000  -0.0000

          k = 0.1250 0.5533 0.0000 ( 20145 PWs)   bands (ev):

   -24.3066 -24.2098 -24.0987 -24.0217 -23.9331 -23.8363 -23.7507 -23.7425
   -23.6849 -23.5955 -10.5274  -9.1131  -5.1252  -2.6179  -1.2600  -0.8834
     2.9000   3.0878

     occupation numbers 
     1.0000   1.0000   1.0000   1.0000   1.0000   1.0000   1.0000   1.0000
     1.0000   1.0000   1.0000   1.0000   1.0000   1.0353  -0.0000  -0.0000
    -0.0000  -0.0000

          k = 0.1667 0.2887 0.0000 ( 20113 PWs)   bands (ev):

   -24.2471 -24.1679 -24.1097 -24.0125 -23.9652 -23.8020 -23.7515 -23.7412
   -23.7410 -23.6570 -11.5101  -7.3456  -4.6110  -3.5814  -0.5670   0.2728
     0.8677   1.7911

     occupation numbers 
     1.0000   1.0000   1.0000   1.0000   1.0000   1.0000   1.0000   1.0000
     1.0000   1.0000   1.0000   1.0000   1.0000   1.0000  -0.0000  -0.0000
    -0.0000  -0.0000

          k = 0.1667 0.3368 0.0000 ( 20110 PWs)   bands (ev):

   -24.2677 -24.1741 -24.1096 -24.0155 -23.9571 -23.8107 -23.7486 -23.7415
   -23.7287 -23.6374 -11.3283  -7.7508  -4.8322  -3.3993  -0.3746  -0.0660
     1.1068   1.9879

     occupation numbers 
     1.0000   1.0000   1.0000   1.0000   1.0000   1.0000   1.0000   1.0000
     1.0000   1.0000   1.0000   1.0000   1.0000   1.0000  -0.0000  -0.0000
    -0.0000  -0.0000

          k = 0.1667 0.3849 0.0000 ( 20115 PWs)   bands (ev):

   -24.2856 -24.1804 -24.1088 -24.0183 -23.9485 -23.8198 -23.7459 -23.7428
   -23.7178 -23.6191 -11.1247  -8.1460  -5.0201  -3.1971  -0.4050  -0.3096
     1.5250   2.2141

     occupation numbers 
     1.0000   1.0000   1.0000   1.0000   1.0000   1.0000   1.0000   1.0000
     1.0000   1.0000   1.0000   1.0000   1.0000   1.0000  -0.0000  -0.0000
    -0.0000  -0.0000

          k = 0.1667 0.4330 0.0000 ( 20139 PWs)   bands (ev):

   -24.3000 -24.1860 -24.1077 -24.0206 -23.9400 -23.8287 -23.7444 -23.7436
   -23.7088 -23.6038 -10.9057  -8.5193  -5.1694  -2.9816  -0.7323  -0.3113
     2.0516   2.4677

     occupation numbers 
     1.0000   1.0000   1.0000   1.0000   1.0000   1.0000   1.0000   1.0000
     1.0000   1.0000   1.0000   1.0000   1.0000   1.0008  -0.0000  -0.0000
    -0.0000  -0.0000

          k = 0.1667 0.4811 0.0000 ( 20145 PWs)   bands (ev):

   -24.3106 -24.1903 -24.1066 -24.0224 -23.9325 -23.8366 -23.7458 -23.7419
   -23.7020 -23.5923 -10.6857  -8.8524  -5.2771  -2.7675  -1.0293  -0.3325
     2.6186   2.7053

     occupation numbers 
     1.0000   1.0000   1.0000   1.0000   1.0000   1.0000   1.0000   1.0000
     1.0000   1.0000   1.0000   1.0000   1.0000   1.0142  -0.0000  -0.0000
    -0.0000  -0.0000

          k = 0.1667 0.5292 0.0000 ( 20147 PWs)   bands (ev):

   -24.3171 -24.1931 -24.1059 -24.0236 -23.9270 -23.8423 -23.7467 -23.7408
   -23.6978 -23.5851 -10.4991  -9.1078  -5.3422  -2.5881  -1.2596  -0.3511
     2.6526   3.0165

     occupation numbers 
     1.0000   1.0000   1.0000   1.0000   1.0000   1.0000   1.0000   1.0000
     1.0000   1.0000   1.0000   1.0000   1.0000   1.0344  -0.0000  -0.0000
    -0.0000  -0.0000

          k = 0.1667 0.5774 0.0000 ( 20135 PWs)   bands (ev):

   -24.3192 -24.1940 -24.1056 -24.0239 -23.9249 -23.8444 -23.7471 -23.7404
   -23.6964 -23.5827 -10.4185  -9.2116  -5.3639  -2.5113  -1.3535  -0.3582
     2.6340   3.1748

     occupation numbers 
     1.0000   1.0000   1.0000   1.0000   1.0000   1.0000   1.0000   1.0000
     1.0000   1.0000   1.0000   1.0000   1.0000   1.0047  -0.0000  -0.0000
    -0.0000  -0.0000

          k = 0.2083 0.3608 0.0000 ( 20119 PWs)   bands (ev):

   -24.2870 -24.1748 -24.1117 -24.0185 -23.9481 -23.8201 -23.7457 -23.7384
   -23.7249 -23.6179 -11.1362  -8.1119  -5.0653  -3.2082  -0.3765  -0.0350
     1.2058   2.1957

     occupation numbers 
     1.0000   1.0000   1.0000   1.0000   1.0000   1.0000   1.0000   1.0000
     1.0000   1.0000   1.0000   1.0000   1.0000   1.0000  -0.0000  -0.0000
    -0.0000  -0.0000

          k = 0.2083 0.4090 0.0000 ( 20133 PWs)   bands (ev):

   -24.3031 -24.1759 -24.1130 -24.0213 -23.9387 -23.8299 -23.7431 -23.7390
   -23.7188 -23.6009 -10.9240  -8.4654  -5.2593  -2.9989  -0.6867   0.1542
     1.5100   2.4315

     occupation numbers 
     1.0000   1.0000   1.0000   1.0000   1.0000   1.0000   1.0000   1.0000
     1.0000   1.0000   1.0000   1.0000   1.0000   1.0006  -0.0000  -0.0000
    -0.0000  -0.0000

          k = 0.2083 0.4571 0.0000 ( 20137 PWs)   bands (ev):

   -24.3156 -24.1772 -24.1137 -24.0235 -23.9295 -23.8394 -23.7410 -23.7405
   -23.7132 -23.5873 -10.7000  -8.7993  -5.4079  -2.7799  -0.9846   0.2148
     1.9839   2.5645

     occupation numbers 
     1.0000   1.0000   1.0000   1.0000   1.0000   1.0000   1.0000   1.0000
     1.0000   1.0000   1.0000   1.0000   1.0000   1.0125  -0.0000  -0.0000
    -0.0000  -0.0000

          k = 0.2083 0.5052 0.0000 ( 20163 PWs)   bands (ev):

   -24.3242 -24.1783 -24.1139 -24.0250 -23.9216 -23.8476 -23.7418 -23.7395
   -23.7092 -23.5779 -10.4837  -9.0907  -5.5080  -2.5708  -1.2482   0.2231
     2.4732   2.5181

     occupation numbers 
     1.0000   1.0000   1.0000   1.0000   1.0000   1.0000   1.0000   1.0000
     1.0000   1.0000   1.0000   1.0000   1.0000   1.0317  -0.0000  -0.0000
    -0.0000  -0.0000

          k = 0.2083 0.5533 0.0000 ( 20157 PWs)   bands (ev):

   -24.3285 -24.1789 -24.1139 -24.0258 -23.9166 -23.8527 -23.7425 -23.7388
   -23.7071 -23.5731 -10.3280  -9.2845  -5.5582  -2.4220  -1.4247   0.2204
     2.4255   2.9351

     occupation numbers 
     1.0000   1.0000   1.0000   1.0000   1.0000   1.0000   1.0000   1.0000
     1.0000   1.0000   1.0000   1.0000   1.0000   0.8893  -0.0000  -0.0000
    -0.0000  -0.0000

          k = 0.2500 0.4330 0.0000 ( 20149 PWs)   bands (ev):

   -24.3173 -24.1718 -24.1170 -24.0238 -23.9284 -23.8405 -23.7407 -23.7373
   -23.7185 -23.5856 -10.7051  -8.7795  -5.4544  -2.7844  -0.9680   0.5367
     1.6290   2.5156

     occupation numbers 
     1.0000   1.0000   1.0000   1.0000   1.0000   1.0000   1.0000   1.0000
     1.0000   1.0000   1.0000   1.0000   1.0000   1.0120  -0.0000  -0.0000
    -0.0000  -0.0000

          k = 0.2500 0.4811 0.0000 ( 20153 PWs)   bands (ev):

   -24.3278 -24.1685 -24.1203 -24.0258 -23.9183 -23.8509 -23.7388 -23.7372
   -23.7172 -23.5742 -10.4773  -9.0771  -5.5975  -2.5632  -1.2383   0.7393
     1.9584   2.3790

     occupation numbers 
     1.0000   1.0000   1.0000   1.0000   1.0000   1.0000   1.0000   1.0000
     1.0000   1.0000   1.0000   1.0000   1.0000   1.0299  -0.0000  -0.0000
    -0.0000  -0.0000

          k = 0.2500 0.5292 0.0000 ( 20133 PWs)   bands (ev):

   -24.3342 -24.1662 -24.1225 -24.0270 -23.9098 -23.8595 -23.7376 -23.7375
   -23.7159 -23.5672 -10.2674  -9.3295  -5.6845  -2.3614  -1.4700   0.8057
     2.2934   2.3937

     occupation numbers 
     1.0000   1.0000   1.0000   1.0000   1.0000   1.0000   1.0000   1.0000
     1.0000   1.0000   1.0000   1.0000   1.0000   0.7514  -0.0001  -0.0000
    -0.0000  -0.0000

          k = 0.2500 0.5774 0.0000 ( 20123 PWs)   bands (ev):

   -24.3363 -24.1654 -24.1233 -24.0274 -23.9061 -23.8633 -23.7378 -23.7372
   -23.7155 -23.5648 -10.1640  -9.4473  -5.7137  -2.2630  -1.5785   0.8194
     2.2644   2.6333

     occupation numbers 
     1.0000   1.0000   1.0000   1.0000   1.0000   1.0000   1.0000   1.0000
     1.0000   1.0000   1.0000   1.0000   1.0000   0.4593  -0.0009  -0.0000
    -0.0000  -0.0000

          k = 0.2917 0.5052 0.0000 ( 20137 PWs)   bands (ev):

   -24.3361 -24.1603 -24.1270 -24.0274 -23.9069 -23.8624 -23.7373 -23.7345
   -23.7203 -23.5651 -10.2460  -9.3448  -5.7283  -2.3398  -1.4857   1.1703
     2.0293   2.2482

     occupation numbers 
     1.0000   1.0000   1.0000   1.0000   1.0000   1.0000   1.0000   1.0000
     1.0000   1.0000   1.0000   1.0000   1.0000   0.6923  -0.0002  -0.0000
    -0.0000  -0.0000

          k = 0.2917 0.5533 0.0000 ( 20132 PWs)   bands (ev):

   -24.3403 -24.1543 -24.1322 -24.0283 -23.8974 -23.8720 -23.7365 -23.7329
   -23.7222 -23.5605 -10.0404  -9.5685  -5.7949  -2.1431  -1.6943   1.3780
     2.1812   2.2076

     occupation numbers 
     1.0000   1.0000   1.0000   1.0000   1.0000   1.0000   1.0000   1.0000
     1.0000   1.0000   1.0000   1.0000   1.0000   0.1361  -0.0050  -0.0000
    -0.0000  -0.0000

          k = 0.3333 0.5774 0.0000 ( 20133 PWs)   bands (ev):

   -24.3424 -24.1429 -24.1429 -24.0287 -23.8847 -23.8847 -23.7360 -23.7278
   -23.7278 -23.5583  -9.8064  -9.8064  -5.8324  -1.9196  -1.9196   1.8732
     1.8732   2.1431

     occupation numbers 
     1.0000   1.0000   1.0000   1.0000   1.0000   1.0000   1.0000   1.0000
     1.0000   1.0000   1.0000   1.0000   1.0000  -0.0345  -0.0345  -0.0000
    -0.0000  -0.0000

     the Fermi energy is    -2.2761 ev

!    total energy              =    -326.39268484 Ry
     estimated scf accuracy    <       0.00000001 Ry
     smearing contrib. (-TS)   =       0.00026406 Ry
     internal energy E=F+TS    =    -326.39294890 Ry

     The total energy is F=E-TS. E is the sum of the following terms:
     one-electron contribution =    -881.89223084 Ry
     hartree contribution      =     448.09003482 Ry
     xc contribution           =     -95.07141342 Ry
     ewald contribution        =     202.48066054 Ry

     convergence has been achieved in   7 iterations

     Writing all to output data dir ../tmp/stanene.save/

     init_run     :     51.35s CPU     87.81s WALL (       1 calls)
     electrons    :   1458.74s CPU   2344.62s WALL (       1 calls)

     Called by init_run:
     wfcinit      :     45.31s CPU     77.79s WALL (       1 calls)
     wfcinit:atom :      0.07s CPU      0.08s WALL (      61 calls)
     wfcinit:wfcr :     44.68s CPU     77.00s WALL (      61 calls)
     potinit      :      0.57s CPU      0.60s WALL (       1 calls)
     hinit0       :      0.49s CPU      0.51s WALL (       1 calls)

     Called by electrons:
     c_bands      :   1339.25s CPU   2153.64s WALL (       7 calls)
     sum_band     :    102.20s CPU    158.44s WALL (       7 calls)
     v_of_rho     :      1.23s CPU      1.34s WALL (       8 calls)
     v_h          :      0.09s CPU      0.11s WALL (       8 calls)
     v_xc         :      1.14s CPU      1.23s WALL (       8 calls)
     newd         :     20.33s CPU     39.47s WALL (       8 calls)
     mix_rho      :      0.13s CPU      0.15s WALL (       7 calls)

     Called by c_bands:
     init_us_2    :      1.36s CPU      1.55s WALL (     915 calls)
     init_us_2:cp :      1.36s CPU      1.55s WALL (     915 calls)
     cegterg      :   1303.76s CPU   2119.58s WALL (     427 calls)

     Called by sum_band:
     sum_band:wei :      0.01s CPU      0.01s WALL (       7 calls)
     sum_band:loo :     98.43s CPU    153.61s WALL (       7 calls)
     sum_band:buf :      0.10s CPU      0.17s WALL (     427 calls)
     sum_band:ini :      0.57s CPU      0.78s WALL (     427 calls)
     sum_band:cal :     74.06s CPU    125.02s WALL (     427 calls)
     sum_band:bec :      0.01s CPU      0.03s WALL (     427 calls)
     addusdens    :      3.26s CPU      4.30s WALL (       7 calls)
                                        0.00s GPU  (       7 calls)
     addusd:skk   :      0.01s CPU      0.03s WALL (       7 calls)
                                        0.00s GPU  (       7 calls)

     Called by *egterg:
     cdiaghg      :     93.77s CPU    163.90s WALL (    2341 calls)
     cegterg:over :    361.46s CPU    565.35s WALL (    1914 calls)
     cegterg:upda :     42.00s CPU     91.89s WALL (    1914 calls)
     cegterg:last :     37.86s CPU     82.13s WALL (    1062 calls)
     h_psi        :    562.64s CPU    926.28s WALL (    2402 calls)
     s_psi        :     21.21s CPU     42.65s WALL (    2402 calls)
     g_psi        :      0.34s CPU      0.34s WALL (    1914 calls)

     Called by h_psi:
     h_psi:calbec :    357.32s CPU    644.04s WALL (    2402 calls)
     vloc_psi     :    146.63s CPU    141.66s WALL (    2402 calls)
     add_vuspsi   :     57.94s CPU    139.32s WALL (    2402 calls)

     General routines
     calbec       :    431.36s CPU    768.88s WALL (    2829 calls)
     fft          :      1.33s CPU      1.43s WALL (     102 calls)
     ffts         :      0.27s CPU      0.28s WALL (      15 calls)
     fftw         :    151.90s CPU    147.45s WALL (   57862 calls)
     interpolate  :      0.35s CPU      0.35s WALL (       8 calls)

     Parallel routines

     PWSCF        :  25m10.39s CPU  40m33.29s WALL


   This run was terminated on:  17:20:49  24Jun2024            

=------------------------------------------------------------------------------=
   JOB DONE.
=------------------------------------------------------------------------------=
