
     Program BANDS v.7.2 starts on 31Jan2024 at 14:59:35 

     This program is part of the open-source Quantum ESPRESSO suite
     for quantum simulation of materials; please cite
         "P. Giannozzi et al., J. Phys.:Condens. Matter 21 395502 (2009);
         "P. Giannozzi et al., J. Phys.:Condens. Matter 29 465901 (2017);
         "P. Giannozzi et al., J. Chem. Phys. 152 154105 (2020);
          URL http://www.quantum-espresso.org", 
     in publications or presentations arising from this work. More details at
     http://www.quantum-espresso.org/quote

     Parallel version (MPI), running on     6 processors

     MPI processes distributed on     1 nodes
     R & G space division:  proc/nbgrp/npool/nimage =       6
     4090 MiB available memory on the printing compute node when the environment starts


     Reading xml data from directory:

     ../tmp/stanene.save/
     file Sn.rel-pbe-dn-rrkjus_psl.0.2.UPF: wavefunction(s)  4D 4D renormalized

     IMPORTANT: XC functional enforced from input :
     Exchange-correlation= PBE
                           (   1   4   3   4   0   0   0)
     Any further DFT definition will be discarded
     Please, verify this is what you really want


     Parallelization info
     --------------------
     sticks:   dense  smooth     PW     G-vecs:    dense   smooth      PW
     Min         214     214     60                26818    26818    3960
     Max         215     215     61                26841    26841    3973
     Sum        1285    1285    361               160939   160939   23787

     Using Slab Decomposition


     Check: negative core charge=   -0.000016

     negative rho (up, down):  1.716E-05 0.000E+00
     Reading collected, re-writing distributed wavefunctions
     high-symmetry point:  0.0000 0.0000 0.0000   x coordinate   0.0000
     high-symmetry point:  0.0000 0.4619 0.0000   x coordinate   0.4619
     high-symmetry point:  0.0000-0.5774 0.0000   x coordinate   0.4619
     high-symmetry point:  0.1000 0.1732 0.0000   x coordinate   0.4619
     high-symmetry point:  0.1000 0.5196 0.0000   x coordinate   0.8083
     high-symmetry point:  0.2000 0.3464 0.0000   x coordinate   1.0083
     high-symmetry point:  0.2000 0.5774 0.0000   x coordinate   1.2392
     high-symmetry point:  0.3000 0.5196 0.0000   x coordinate   1.3547

     Plottable bands (eV) written to file stanene.bands.gnu
     Bands written to file stanene.bands

 **************************************************************************

                    xk=(   0.00000,   0.00000,   0.00000  )

     double point group C_3v (3m)  
     there are  6 classes and  3 irreducible representations
     the character table:

       E     -E    2C3   -2C3  3s_v  -3s_v
                                          
G_4    2.00 -2.00  1.00 -1.00  0.00  0.00
G_5    1.00 -1.00 -1.00  1.00  0.00  0.00
G_6    1.00 -1.00 -1.00  1.00  0.00  0.00

     imaginary part

       E     -E    2C3   -2C3  3s_v  -3s_v
                                          
G_4    0.00  0.00  0.00  0.00  0.00  0.00
G_5    0.00  0.00  0.00  0.00  1.00 -1.00
G_6    0.00  0.00  0.00  0.00 -1.00  1.00

     the symmetry operations in each class and the name of the first element:

     E             1
                                                                 
     -E           -1
                                                                 
     2C3           2    3
                                                                 
     -2C3         -2   -3
                                                                 
     3s_v          5    6   -4
                                                                 
     -3s_v         4   -5   -6
                                                                 

     Band symmetry, C_3v (3m)   double point group:

     e(  1 -  2) =    -24.02997  eV     2   -->   ?
     e(  3 -  4) =    -24.02648  eV     2   -->   ?
     e(  5 -  6) =    -23.99322  eV     2   -->   ?
     e(  7 -  8) =    -23.92389  eV     2   -->   ?
     e(  9 - 10) =    -23.08379  eV     2   -->   ?
     e( 11 - 12) =    -22.99149  eV     2   -->   ?
     e( 13 - 14) =    -22.93537  eV     2   -->   ?
     e( 15 - 16) =    -22.91038  eV     2   -->   ?
     e( 17 - 18) =    -22.87489  eV     2   -->   ?
     e( 19 - 20) =    -22.79133  eV     2   --> G_4   L_6      
     e( 21 - 22) =    -11.40910  eV     2   --> G_4   L_6      
     e( 23 - 24) =     -5.30453  eV     2   --> G_4   L_6      
     e( 25 - 26) =     -2.69916  eV     2   --> G_4   L_6      
     e( 27 - 28) =     -2.23654  eV     2   --> G_5   L_4      
     e( 27 - 28) =     -2.23654  eV     2   --> G_6   L_5      

 **************************************************************************

 **************************************************************************

                    xk=(   0.00000,   0.11547,   0.00000  )

     double point group C_s (m)    
     there are  4 classes and  2 irreducible representations
     the character table:

       E     -E    s     -s   
                              
G_3    1.00 -1.00  0.00  0.00
G_4    1.00 -1.00  0.00  0.00

     imaginary part

       E     -E    s     -s   
                              
G_3    0.00  0.00  1.00 -1.00
G_4    0.00  0.00 -1.00  1.00

     the symmetry operations in each class and the name of the first element:

     E             1
                                                                 
     -E           -1
                                                                 
     s             2
                                                                 
     -s           -2
                                                                 

     Band symmetry, C_s (m)     double point group:

     e(  1 -  1) =    -24.03073  eV     1   -->   ?
     e(  2 -  2) =    -24.03061  eV     1   -->   ?
     e(  3 -  3) =    -24.02692  eV     1   -->   ?
     e(  4 -  4) =    -24.02665  eV     1   -->   ?
     e(  5 -  5) =    -23.99150  eV     1   -->   ?
     e(  6 -  6) =    -23.99133  eV     1   -->   ?
     e(  7 -  8) =    -23.92530  eV     2   -->   ?
     e(  9 - 10) =    -23.08008  eV     2   -->   ?
     e( 11 - 11) =    -22.99434  eV     1   -->   ?
     e( 12 - 12) =    -22.99408  eV     1   -->   ?
     e( 13 - 13) =    -22.93220  eV     1   -->   ?
     e( 14 - 14) =    -22.93173  eV     1   --> G_3            
     e( 15 - 15) =    -22.92477  eV     1   --> G_3            
     e( 16 - 16) =    -22.92423  eV     1   --> G_4            
     e( 17 - 17) =    -22.86305  eV     1   --> G_3            
     e( 18 - 18) =    -22.86282  eV     1   --> G_4            
     e( 19 - 19) =    -22.79183  eV     1   --> G_4            
     e( 20 - 20) =    -22.79172  eV     1   --> G_3            
     e( 21 - 22) =    -11.32476  eV     2   --> G_3            
     e( 21 - 22) =    -11.32476  eV     2   --> G_4            
     e( 23 - 24) =     -5.45676  eV     2   --> G_3            
     e( 23 - 24) =     -5.45676  eV     2   --> G_4            
     e( 25 - 25) =     -3.31055  eV     1   --> G_3            
     e( 26 - 26) =     -3.31041  eV     1   --> G_4            
     e( 27 - 28) =     -2.61889  eV     2   --> G_3            
     e( 27 - 28) =     -2.61889  eV     2   --> G_4            

 **************************************************************************

 **************************************************************************

                    xk=(   0.00000,   0.23094,   0.00000  )

     Band symmetry, C_s (m)     double point group:

     e(  1 -  1) =    -24.03302  eV     1   -->   ?
     e(  2 -  2) =    -24.03266  eV     1   -->   ?
     e(  3 -  3) =    -24.02692  eV     1   --> G_4            
     e(  4 -  4) =    -24.02624  eV     1   --> G_3            
     e(  5 -  5) =    -23.98724  eV     1   --> G_3            
     e(  6 -  6) =    -23.98685  eV     1   --> G_4            
     e(  7 -  8) =    -23.92931  eV     2   --> G_3            
     e(  7 -  8) =    -23.92931  eV     2   --> G_4            
     e(  9 -  9) =    -23.07011  eV     1   --> G_3            
     e( 10 - 10) =    -23.06992  eV     1   --> G_4            
     e( 11 - 11) =    -22.99994  eV     1   --> G_4            
     e( 12 - 12) =    -22.99947  eV     1   --> G_3            
     e( 13 - 13) =    -22.94960  eV     1   --> G_4            
     e( 14 - 14) =    -22.94914  eV     1   --> G_3            
     e( 15 - 15) =    -22.92304  eV     1   --> G_3            
     e( 16 - 16) =    -22.92245  eV     1   --> G_4            
     e( 17 - 17) =    -22.84594  eV     1   --> G_3            
     e( 18 - 18) =    -22.84558  eV     1   --> G_4            
     e( 19 - 19) =    -22.79318  eV     1   --> G_4            
     e( 20 - 20) =    -22.79293  eV     1   --> G_3            
     e( 21 - 22) =    -11.07495  eV     2   --> G_3            
     e( 21 - 22) =    -11.07495  eV     2   --> G_4            
     e( 23 - 23) =     -6.06329  eV     1   --> G_4            
     e( 24 - 24) =     -6.06317  eV     1   --> G_3            
     e( 25 - 25) =     -3.72779  eV     1   --> G_3            
     e( 26 - 26) =     -3.72764  eV     1   --> G_4            
     e( 27 - 28) =     -2.99516  eV     2   --> G_3            
     e( 27 - 28) =     -2.99516  eV     2   --> G_4            

 **************************************************************************

 **************************************************************************

                    xk=(   0.00000,   0.34641,   0.00000  )

     Band symmetry, C_s (m)     double point group:

     e(  1 -  1) =    -24.03564  eV     1   --> G_3            
     e(  2 -  2) =    -24.03528  eV     1   --> G_4            
     e(  3 -  3) =    -24.02572  eV     1   --> G_4            
     e(  4 -  4) =    -24.02497  eV     1   --> G_3            
     e(  5 -  5) =    -23.98223  eV     1   --> G_3            
     e(  6 -  6) =    -23.98168  eV     1   --> G_4            
     e(  7 -  7) =    -23.93501  eV     1   --> G_4            
     e(  8 -  8) =    -23.93487  eV     1   --> G_3            
     e(  9 -  9) =    -23.05730  eV     1   --> G_3            
     e( 10 - 10) =    -23.05695  eV     1   --> G_4            
     e( 11 - 11) =    -23.00463  eV     1   --> G_4            
     e( 12 - 12) =    -23.00406  eV     1   --> G_3            
     e( 13 - 13) =    -22.97134  eV     1   --> G_4            
     e( 14 - 14) =    -22.97098  eV     1   --> G_3            
     e( 15 - 15) =    -22.91533  eV     1   --> G_3            
     e( 16 - 16) =    -22.91486  eV     1   --> G_4            
     e( 17 - 17) =    -22.83210  eV     1   --> G_3            
     e( 18 - 18) =    -22.83163  eV     1   --> G_4            
     e( 19 - 19) =    -22.79534  eV     1   --> G_4            
     e( 20 - 20) =    -22.79495  eV     1   --> G_3            
     e( 21 - 22) =    -10.67411  eV     2   --> G_3            
     e( 21 - 22) =    -10.67411  eV     2   --> G_4            
     e( 23 - 24) =     -6.99657  eV     2   --> G_3            
     e( 23 - 24) =     -6.99657  eV     2   --> G_4            
     e( 25 - 25) =     -3.63617  eV     1   --> G_3            
     e( 26 - 26) =     -3.63602  eV     1   --> G_4            
     e( 27 - 28) =     -3.34039  eV     2   --> G_3            
     e( 27 - 28) =     -3.34039  eV     2   --> G_4            

 **************************************************************************

 **************************************************************************

                    xk=(   0.00000,   0.46188,   0.00000  )

     Band symmetry, C_s (m)     double point group:

     e(  1 -  1) =    -24.03749  eV     1   --> G_3            
     e(  2 -  2) =    -24.03729  eV     1   --> G_4            
     e(  3 -  3) =    -24.02405  eV     1   --> G_4            
     e(  4 -  4) =    -24.02356  eV     1   --> G_3            
     e(  5 -  5) =    -23.97790  eV     1   --> G_3            
     e(  6 -  6) =    -23.97744  eV     1   --> G_4            
     e(  7 -  7) =    -23.94051  eV     1   --> G_4            
     e(  8 -  8) =    -23.94034  eV     1   --> G_3            
     e(  9 -  9) =    -23.04610  eV     1   --> G_3            
     e( 10 - 10) =    -23.04573  eV     1   --> G_4            
     e( 11 - 11) =    -23.00809  eV     1   --> G_4            
     e( 12 - 12) =    -23.00764  eV     1   --> G_3            
     e( 13 - 13) =    -22.98554  eV     1   --> G_4            
     e( 14 - 14) =    -22.98526  eV     1   --> G_3            
     e( 15 - 15) =    -22.91107  eV     1   --> G_3            
     e( 16 - 16) =    -22.91077  eV     1   --> G_4            
     e( 17 - 17) =    -22.82192  eV     1   --> G_3            
     e( 18 - 18) =    -22.82149  eV     1   --> G_4            
     e( 19 - 19) =    -22.79832  eV     1   --> G_4            
     e( 20 - 20) =    -22.79793  eV     1   --> G_3            
     e( 21 - 22) =    -10.17832  eV     2   --> G_3            
     e( 21 - 22) =    -10.17832  eV     2   --> G_4            
     e( 23 - 24) =     -7.89093  eV     2   --> G_3            
     e( 23 - 24) =     -7.89093  eV     2   --> G_4            
     e( 25 - 26) =     -3.61138  eV     2   --> G_3            
     e( 25 - 26) =     -3.61138  eV     2   --> G_4            
     e( 27 - 28) =     -3.30466  eV     2   --> G_3            
     e( 27 - 28) =     -3.30466  eV     2   --> G_4            

 **************************************************************************

 **************************************************************************

                    xk=(   0.00000,  -0.57735,   0.00000  )

     Band symmetry, C_s (m)     double point group:

     e(  1 -  2) =    -24.03809  eV     2   --> G_3            
     e(  1 -  2) =    -24.03809  eV     2   --> G_4            
     e(  3 -  4) =    -24.02309  eV     2   --> G_3            
     e(  3 -  4) =    -24.02309  eV     2   --> G_4            
     e(  5 -  6) =    -23.97586  eV     2   --> G_3            
     e(  5 -  6) =    -23.97586  eV     2   --> G_4            
     e(  7 -  8) =    -23.94285  eV     2   --> G_3            
     e(  7 -  8) =    -23.94285  eV     2   --> G_4            
     e(  9 - 10) =    -23.04108  eV     2   --> G_3            
     e(  9 - 10) =    -23.04108  eV     2   --> G_4            
     e( 11 - 12) =    -23.01035  eV     2   --> G_3            
     e( 11 - 12) =    -23.01035  eV     2   --> G_4            
     e( 13 - 14) =    -22.98943  eV     2   --> G_3            
     e( 13 - 14) =    -22.98943  eV     2   --> G_4            
     e( 15 - 16) =    -22.90987  eV     2   --> G_3            
     e( 15 - 16) =    -22.90987  eV     2   --> G_4            
     e( 17 - 18) =    -22.81716  eV     2   --> G_3            
     e( 17 - 18) =    -22.81716  eV     2   --> G_4            
     e( 19 - 20) =    -22.80020  eV     2   --> G_3            
     e( 19 - 20) =    -22.80020  eV     2   --> G_4            
     e( 21 - 22) =     -9.86596  eV     2   --> G_3            
     e( 21 - 22) =     -9.86596  eV     2   --> G_4            
     e( 23 - 24) =     -8.34515  eV     2   --> G_3            
     e( 23 - 24) =     -8.34515  eV     2   --> G_4            
     e( 25 - 26) =     -3.68775  eV     2   --> G_3            
     e( 25 - 26) =     -3.68775  eV     2   --> G_4            
     e( 27 - 28) =     -3.12922  eV     2   --> G_3            
     e( 27 - 28) =     -3.12922  eV     2   --> G_4            

 **************************************************************************

 **************************************************************************

                    xk=(   0.10000,   0.17321,   0.00000  )

     double point group C_1 (1)    
     there are  2 classes and  1 irreducible representations
     the character table:

       E     -E   
                  
G_2    1.00 -1.00

     the symmetry operations in each class and the name of the first element:

     E             1
                                                                 
     -E           -1
                                                                 

     Band symmetry, C_1 (1)     double point group:

     e(  1 -  1) =    -24.03256  eV     1   --> G_2            
     e(  2 -  2) =    -24.03199  eV     1   --> G_2            
     e(  3 -  3) =    -24.02701  eV     1   --> G_2            
     e(  4 -  4) =    -24.02617  eV     1   --> G_2            
     e(  5 -  5) =    -23.98863  eV     1   --> G_2            
     e(  6 -  6) =    -23.98824  eV     1   --> G_2            
     e(  7 -  7) =    -23.92801  eV     1   --> G_2            
     e(  8 -  8) =    -23.92789  eV     1   --> G_2            
     e(  9 -  9) =    -23.07325  eV     1   --> G_2            
     e( 10 - 10) =    -23.07309  eV     1   --> G_2            
     e( 11 - 11) =    -22.99847  eV     1   --> G_2            
     e( 12 - 12) =    -22.99802  eV     1   --> G_2            
     e( 13 - 13) =    -22.94311  eV     1   --> G_2            
     e( 14 - 14) =    -22.94222  eV     1   --> G_2            
     e( 15 - 15) =    -22.92563  eV     1   --> G_2            
     e( 16 - 16) =    -22.92464  eV     1   --> G_2            
     e( 17 - 17) =    -22.85072  eV     1   --> G_2            
     e( 18 - 18) =    -22.85035  eV     1   --> G_2            
     e( 19 - 19) =    -22.79250  eV     1   --> G_2            
     e( 20 - 20) =    -22.79226  eV     1   --> G_2            
     e( 21 - 22) =    -11.15751  eV     2   -->   2 G_2            
     e( 23 - 23) =     -5.84650  eV     1   --> G_2            
     e( 24 - 24) =     -5.84638  eV     1   --> G_2            
     e( 25 - 25) =     -3.65696  eV     1   --> G_2            
     e( 26 - 26) =     -3.65680  eV     1   --> G_2            
     e( 27 - 28) =     -2.98241  eV     2   -->   2 G_2            

 **************************************************************************

 **************************************************************************

                    xk=(   0.10000,   0.28868,   0.00000  )

     Band symmetry, C_1 (1)     double point group:

     e(  1 -  1) =    -24.03542  eV     1   --> G_2            
     e(  2 -  2) =    -24.03470  eV     1   --> G_2            
     e(  3 -  3) =    -24.02577  eV     1   --> G_2            
     e(  4 -  4) =    -24.02458  eV     1   --> G_2            
     e(  5 -  5) =    -23.98467  eV     1   --> G_2            
     e(  6 -  6) =    -23.98394  eV     1   --> G_2            
     e(  7 -  7) =    -23.93263  eV     1   --> G_2            
     e(  8 -  8) =    -23.93228  eV     1   --> G_2            
     e(  9 -  9) =    -23.06207  eV     1   --> G_2            
     e( 10 - 10) =    -23.06177  eV     1   --> G_2            
     e( 11 - 11) =    -23.00329  eV     1   --> G_2            
     e( 12 - 12) =    -23.00264  eV     1   --> G_2            
     e( 13 - 13) =    -22.96348  eV     1   --> G_2            
     e( 14 - 14) =    -22.96282  eV     1   --> G_2            
     e( 15 - 15) =    -22.91759  eV     1   --> G_2            
     e( 16 - 16) =    -22.91689  eV     1   --> G_2            
     e( 17 - 17) =    -22.83966  eV     1   --> G_2            
     e( 18 - 18) =    -22.83912  eV     1   --> G_2            
     e( 19 - 19) =    -22.79235  eV     1   --> G_2            
     e( 20 - 20) =    -22.79193  eV     1   --> G_2            
     e( 21 - 22) =    -10.83027  eV     2   -->   2 G_2            
     e( 23 - 23) =     -6.63104  eV     1   --> G_2            
     e( 24 - 24) =     -6.63093  eV     1   --> G_2            
     e( 25 - 25) =     -3.69404  eV     1   --> G_2            
     e( 26 - 26) =     -3.69385  eV     1   --> G_2            
     e( 27 - 28) =     -3.42444  eV     2   -->   2 G_2            

 **************************************************************************

 **************************************************************************

                    xk=(   0.10000,   0.40415,   0.00000  )

     Band symmetry, C_1 (1)     double point group:

     e(  1 -  1) =    -24.03796  eV     1   --> G_2            
     e(  2 -  2) =    -24.03730  eV     1   --> G_2            
     e(  3 -  3) =    -24.02361  eV     1   --> G_2            
     e(  4 -  4) =    -24.02237  eV     1   --> G_2            
     e(  5 -  5) =    -23.98131  eV     1   --> G_2            
     e(  6 -  6) =    -23.98035  eV     1   --> G_2            
     e(  7 -  7) =    -23.93757  eV     1   --> G_2            
     e(  8 -  8) =    -23.93697  eV     1   --> G_2            
     e(  9 -  9) =    -23.05096  eV     1   --> G_2            
     e( 10 - 10) =    -23.05053  eV     1   --> G_2            
     e( 11 - 11) =    -23.00606  eV     1   --> G_2            
     e( 12 - 12) =    -23.00539  eV     1   --> G_2            
     e( 13 - 13) =    -22.98010  eV     1   --> G_2            
     e( 14 - 14) =    -22.97952  eV     1   --> G_2            
     e( 15 - 15) =    -22.91125  eV     1   --> G_2            
     e( 16 - 16) =    -22.91075  eV     1   --> G_2            
     e( 17 - 17) =    -22.83451  eV     1   --> G_2            
     e( 18 - 18) =    -22.83389  eV     1   --> G_2            
     e( 19 - 19) =    -22.79030  eV     1   --> G_2            
     e( 20 - 20) =    -22.78973  eV     1   --> G_2            
     e( 21 - 22) =    -10.36917  eV     2   -->   2 G_2            
     e( 23 - 24) =     -7.53619  eV     2   -->   2 G_2            
     e( 25 - 25) =     -3.88938  eV     1   --> G_2            
     e( 26 - 26) =     -3.88924  eV     1   --> G_2            
     e( 27 - 27) =     -3.31669  eV     1   --> G_2            
     e( 28 - 28) =     -3.31656  eV     1   --> G_2            

 **************************************************************************

 **************************************************************************

                    xk=(   0.10000,   0.51962,   0.00000  )

     Band symmetry, C_1 (1)     double point group:

     e(  1 -  1) =    -24.03939  eV     1   --> G_2            
     e(  2 -  2) =    -24.03882  eV     1   --> G_2            
     e(  3 -  3) =    -24.02186  eV     1   --> G_2            
     e(  4 -  4) =    -24.02069  eV     1   --> G_2            
     e(  5 -  5) =    -23.97947  eV     1   --> G_2            
     e(  6 -  6) =    -23.97851  eV     1   --> G_2            
     e(  7 -  7) =    -23.94079  eV     1   --> G_2            
     e(  8 -  8) =    -23.94004  eV     1   --> G_2            
     e(  9 -  9) =    -23.04426  eV     1   --> G_2            
     e( 10 - 10) =    -23.04393  eV     1   --> G_2            
     e( 11 - 11) =    -23.00701  eV     1   --> G_2            
     e( 12 - 12) =    -23.00665  eV     1   --> G_2            
     e( 13 - 13) =    -22.98852  eV     1   --> G_2            
     e( 14 - 14) =    -22.98819  eV     1   --> G_2            
     e( 15 - 15) =    -22.90827  eV     1   --> G_2            
     e( 16 - 16) =    -22.90802  eV     1   --> G_2            
     e( 17 - 17) =    -22.83328  eV     1   --> G_2            
     e( 18 - 18) =    -22.83265  eV     1   --> G_2            
     e( 19 - 19) =    -22.78813  eV     1   --> G_2            
     e( 20 - 20) =    -22.78752  eV     1   --> G_2            
     e( 21 - 22) =     -9.89306  eV     2   -->   2 G_2            
     e( 23 - 24) =     -8.26564  eV     2   -->   2 G_2            
     e( 25 - 25) =     -4.07428  eV     1   --> G_2            
     e( 26 - 26) =     -4.07417  eV     1   --> G_2            
     e( 27 - 27) =     -2.98729  eV     1   --> G_2            
     e( 28 - 28) =     -2.98713  eV     1   --> G_2            

 **************************************************************************

 **************************************************************************

                    xk=(   0.20000,   0.34641,   0.00000  )

     Band symmetry, C_1 (1)     double point group:

     e(  1 -  1) =    -24.03851  eV     1   --> G_2            
     e(  2 -  2) =    -24.03770  eV     1   --> G_2            
     e(  3 -  3) =    -24.02277  eV     1   --> G_2            
     e(  4 -  4) =    -24.02117  eV     1   --> G_2            
     e(  5 -  5) =    -23.98349  eV     1   --> G_2            
     e(  6 -  6) =    -23.98225  eV     1   --> G_2            
     e(  7 -  7) =    -23.93590  eV     1   --> G_2            
     e(  8 -  8) =    -23.93514  eV     1   --> G_2            
     e(  9 -  9) =    -23.05319  eV     1   --> G_2            
     e( 10 - 10) =    -23.05275  eV     1   --> G_2            
     e( 11 - 11) =    -23.00535  eV     1   --> G_2            
     e( 12 - 12) =    -23.00454  eV     1   --> G_2            
     e( 13 - 13) =    -22.97680  eV     1   --> G_2            
     e( 14 - 14) =    -22.97601  eV     1   --> G_2            
     e( 15 - 15) =    -22.91079  eV     1   --> G_2            
     e( 16 - 16) =    -22.91012  eV     1   --> G_2            
     e( 17 - 17) =    -22.84219  eV     1   --> G_2            
     e( 18 - 18) =    -22.84151  eV     1   --> G_2            
     e( 19 - 19) =    -22.78579  eV     1   --> G_2            
     e( 20 - 20) =    -22.78520  eV     1   --> G_2            
     e( 21 - 22) =    -10.43566  eV     2   -->   2 G_2            
     e( 23 - 24) =     -7.37517  eV     2   -->   2 G_2            
     e( 25 - 25) =     -4.09182  eV     1   --> G_2            
     e( 26 - 26) =     -4.09170  eV     1   --> G_2            
     e( 27 - 28) =     -3.34587  eV     2   -->   2 G_2            

 **************************************************************************

 **************************************************************************

                    xk=(   0.20000,   0.46188,   0.00000  )

     Band symmetry, C_1 (1)     double point group:

     e(  1 -  1) =    -24.04085  eV     1   --> G_2            
     e(  2 -  2) =    -24.04010  eV     1   --> G_2            
     e(  3 -  3) =    -24.01931  eV     1   --> G_2            
     e(  4 -  4) =    -24.01743  eV     1   --> G_2            
     e(  5 -  5) =    -23.98447  eV     1   --> G_2            
     e(  6 -  6) =    -23.98290  eV     1   --> G_2            
     e(  7 -  7) =    -23.93759  eV     1   --> G_2            
     e(  8 -  8) =    -23.93655  eV     1   --> G_2            
     e(  9 -  9) =    -23.04812  eV     1   --> G_2            
     e( 10 - 10) =    -23.04769  eV     1   --> G_2            
     e( 11 - 11) =    -23.00320  eV     1   --> G_2            
     e( 12 - 12) =    -23.00267  eV     1   --> G_2            
     e( 13 - 13) =    -22.98606  eV     1   --> G_2            
     e( 14 - 14) =    -22.98542  eV     1   --> G_2            
     e( 15 - 15) =    -22.90454  eV     1   --> G_2            
     e( 16 - 16) =    -22.90408  eV     1   --> G_2            
     e( 17 - 17) =    -22.85020  eV     1   --> G_2            
     e( 18 - 18) =    -22.84950  eV     1   --> G_2            
     e( 19 - 19) =    -22.77796  eV     1   --> G_2            
     e( 20 - 20) =    -22.77732  eV     1   --> G_2            
     e( 21 - 22) =     -9.93335  eV     2   -->   2 G_2            
     e( 23 - 24) =     -8.13293  eV     2   -->   2 G_2            
     e( 25 - 25) =     -4.49625  eV     1   --> G_2            
     e( 26 - 26) =     -4.49614  eV     1   --> G_2            
     e( 27 - 27) =     -2.93478  eV     1   --> G_2            
     e( 28 - 28) =     -2.93467  eV     1   --> G_2            

 **************************************************************************

 **************************************************************************

                    xk=(   0.20000,   0.57735,   0.00000  )

     Band symmetry, C_1 (1)     double point group:

     e(  1 -  1) =    -24.04171  eV     1   --> G_2            
     e(  2 -  2) =    -24.04100  eV     1   --> G_2            
     e(  3 -  3) =    -24.01768  eV     1   --> G_2            
     e(  4 -  4) =    -24.01566  eV     1   --> G_2            
     e(  5 -  5) =    -23.98543  eV     1   --> G_2            
     e(  6 -  6) =    -23.98377  eV     1   --> G_2            
     e(  7 -  7) =    -23.93796  eV     1   --> G_2            
     e(  8 -  8) =    -23.93685  eV     1   --> G_2            
     e(  9 -  9) =    -23.04697  eV     1   --> G_2            
     e( 10 - 10) =    -23.04660  eV     1   --> G_2            
     e( 11 - 11) =    -23.00062  eV     1   --> G_2            
     e( 12 - 12) =    -23.00033  eV     1   --> G_2            
     e( 13 - 13) =    -22.98974  eV     1   --> G_2            
     e( 14 - 14) =    -22.98939  eV     1   --> G_2            
     e( 15 - 15) =    -22.90168  eV     1   --> G_2            
     e( 16 - 16) =    -22.90144  eV     1   --> G_2            
     e( 17 - 17) =    -22.85453  eV     1   --> G_2            
     e( 18 - 18) =    -22.85381  eV     1   --> G_2            
     e( 19 - 19) =    -22.77473  eV     1   --> G_2            
     e( 20 - 20) =    -22.77408  eV     1   --> G_2            
     e( 21 - 22) =     -9.58112  eV     2   -->   2 G_2            
     e( 23 - 24) =     -8.57810  eV     2   -->   2 G_2            
     e( 25 - 25) =     -4.63572  eV     1   --> G_2            
     e( 26 - 26) =     -4.63562  eV     1   --> G_2            
     e( 27 - 27) =     -2.64313  eV     1   --> G_2            
     e( 28 - 28) =     -2.64296  eV     1   --> G_2            

 **************************************************************************

 **************************************************************************

                    xk=(   0.30000,   0.51962,   0.00000  )

     Band symmetry, C_1 (1)     double point group:

     e(  1 -  1) =    -24.04266  eV     1   --> G_2            
     e(  2 -  2) =    -24.04193  eV     1   --> G_2            
     e(  3 -  3) =    -24.01532  eV     1   --> G_2            
     e(  4 -  4) =    -24.01274  eV     1   --> G_2            
     e(  5 -  5) =    -23.98906  eV     1   --> G_2            
     e(  6 -  6) =    -23.98690  eV     1   --> G_2            
     e(  7 -  7) =    -23.93637  eV     1   --> G_2            
     e(  8 -  8) =    -23.93518  eV     1   --> G_2            
     e(  9 -  9) =    -23.04868  eV     1   --> G_2            
     e( 10 - 10) =    -23.04829  eV     1   --> G_2            
     e( 11 - 11) =    -22.99685  eV     1   --> G_2            
     e( 12 - 12) =    -22.99656  eV     1   --> G_2            
     e( 13 - 13) =    -22.99026  eV     1   --> G_2            
     e( 14 - 14) =    -22.98992  eV     1   --> G_2            
     e( 15 - 15) =    -22.89557  eV     1   --> G_2            
     e( 16 - 16) =    -22.89531  eV     1   --> G_2            
     e( 17 - 17) =    -22.86694  eV     1   --> G_2            
     e( 18 - 18) =    -22.86609  eV     1   --> G_2            
     e( 19 - 19) =    -22.76962  eV     1   --> G_2            
     e( 20 - 20) =    -22.76896  eV     1   --> G_2            
     e( 21 - 22) =     -9.41073  eV     2   -->   2 G_2            
     e( 23 - 23) =     -8.73216  eV     1   --> G_2            
     e( 24 - 24) =     -8.73205  eV     1   --> G_2            
     e( 25 - 25) =     -4.86194  eV     1   --> G_2            
     e( 26 - 26) =     -4.86184  eV     1   --> G_2            
     e( 27 - 27) =     -2.46612  eV     1   --> G_2            
     e( 28 - 28) =     -2.46591  eV     1   --> G_2            

 **************************************************************************

     BANDS        :   4m20.71s CPU  16m 0.90s WALL


   This run was terminated on:  15:15:36  31Jan2024            

=------------------------------------------------------------------------------=
   JOB DONE.
=------------------------------------------------------------------------------=
