
     Program PWSCF v.7.2 starts on 31Jan2024 at 14:59:34 

     This program is part of the open-source Quantum ESPRESSO suite
     for quantum simulation of materials; please cite
         "P. Giannozzi et al., J. Phys.:Condens. Matter 21 395502 (2009);
         "P. Giannozzi et al., J. Phys.:Condens. Matter 29 465901 (2017);
         "P. Giannozzi et al., J. Chem. Phys. 152 154105 (2020);
          URL http://www.quantum-espresso.org", 
     in publications or presentations arising from this work. More details at
     http://www.quantum-espresso.org/quote

     Parallel version (MPI), running on     6 processors

     MPI processes distributed on     1 nodes
     4136 MiB available memory on the printing compute node when the environment starts

     Waiting for input...
     Reading input from standard input

     Current dimensions of program PWSCF are:
     Max number of different atomic species (ntypx) = 10
     Max number of k-points (npk) =  40000
     Max angular momentum in pseudopotentials (lmaxx) =  4

     Atomic positions and unit cell read from directory:
     ../tmp/stanene.save/
     Atomic positions from file used, from input discarded


     R & G space division:  proc/nbgrp/npool/nimage =       6
     Subspace diagonalization in iterative solution of the eigenvalue problem:
     a serial algorithm will be used


     Parallelization info
     --------------------
     sticks:   dense  smooth     PW     G-vecs:    dense   smooth      PW
     Min         431     214     61                75909    26818    4015
     Max         432     215     62                75924    26841    4025
     Sum        2587    1285    367               455489   160939   24117

     Using Slab Decomposition



     bravais-lattice index     =            4
     lattice parameter (alat)  =       8.8506  a.u.
     unit-cell volume          =    2563.9136 (a.u.)^3
     number of atoms/cell      =            2
     number of atomic types    =            1
     number of electrons       =        28.00
     number of Kohn-Sham states=           16
     kinetic-energy cutoff     =      60.0000  Ry
     charge density cutoff     =     480.0000  Ry
     Exchange-correlation= SLA  PW   PBE  PBE
                           (   1   4   3   4   0   0   0)

     celldm(1)=   8.850584  celldm(2)=   0.000000  celldm(3)=   4.270286
     celldm(4)=   0.000000  celldm(5)=   0.000000  celldm(6)=   0.000000

     crystal axes: (cart. coord. in units of alat)
               a(1) = (   1.000000   0.000000   0.000000 )  
               a(2) = (  -0.500000   0.866025   0.000000 )  
               a(3) = (   0.000000   0.000000   4.270286 )  

     reciprocal axes: (cart. coord. in units 2 pi/alat)
               b(1) = (  1.000000  0.577350 -0.000000 )  
               b(2) = (  0.000000  1.154701  0.000000 )  
               b(3) = (  0.000000 -0.000000  0.234176 )  


     PseudoPot. # 1 for Sn read from file:
     ../pseudo/Sn_pbe_v1.uspp.F.UPF
     MD5 check sum: 4cf58ce39ec5d5d420df3dd08604eb00
     Pseudo is Ultrasoft + core correction, Zval = 14.0
     Generated by new atomic code, or converted to UPF format
     Using radial grid of  891 points,  6 beta functions with: 
                l(1) =   0
                l(2) =   0
                l(3) =   1
                l(4) =   1
                l(5) =   2
                l(6) =   2
     Q(r) pseudized with  6 coefficients,  rinner =    1.200   1.200   1.200
                                                       1.200   1.200

     atomic species   valence    mass     pseudopotential
        Sn            14.00   118.71000     Sn( 1.00)

      6 Sym. Ops. (no inversion) found



   Cartesian axes

     site n.     atom                  positions (alat units)
         1           Sn  tau(   1) = (   0.0000000   0.5773503   2.1351428  )
         2           Sn  tau(   2) = (   0.5000000   0.2886751   1.9552503  )

     number of k points=    91  Methfessel-Paxton smearing, width (Ry)=  0.0200
                       cart. coord. in units 2pi/alat
        k(    1) = (   0.0000000   0.0000000   0.0000000), wk =   0.0219780
        k(    2) = (   0.0166667   0.0000000   0.0000000), wk =   0.0219780
        k(    3) = (   0.0333333   0.0000000   0.0000000), wk =   0.0219780
        k(    4) = (   0.0500000   0.0000000   0.0000000), wk =   0.0219780
        k(    5) = (   0.0666667   0.0000000   0.0000000), wk =   0.0219780
        k(    6) = (   0.0833333   0.0000000   0.0000000), wk =   0.0219780
        k(    7) = (   0.1000000   0.0000000   0.0000000), wk =   0.0219780
        k(    8) = (   0.1166667   0.0000000   0.0000000), wk =   0.0219780
        k(    9) = (   0.1333333   0.0000000   0.0000000), wk =   0.0219780
        k(   10) = (   0.1500000   0.0000000   0.0000000), wk =   0.0219780
        k(   11) = (   0.1666667   0.0000000   0.0000000), wk =   0.0219780
        k(   12) = (   0.1833333   0.0000000   0.0000000), wk =   0.0219780
        k(   13) = (   0.2000000   0.0000000   0.0000000), wk =   0.0219780
        k(   14) = (   0.2166667   0.0000000   0.0000000), wk =   0.0219780
        k(   15) = (   0.2333333   0.0000000   0.0000000), wk =   0.0219780
        k(   16) = (   0.2500000   0.0000000   0.0000000), wk =   0.0219780
        k(   17) = (   0.2666667   0.0000000   0.0000000), wk =   0.0219780
        k(   18) = (   0.2833333   0.0000000   0.0000000), wk =   0.0219780
        k(   19) = (   0.3000000   0.0000000   0.0000000), wk =   0.0219780
        k(   20) = (   0.3166667   0.0000000   0.0000000), wk =   0.0219780
        k(   21) = (   0.3333333   0.0000000   0.0000000), wk =   0.0219780
        k(   22) = (   0.3500000   0.0000000   0.0000000), wk =   0.0219780
        k(   23) = (   0.3666667   0.0000000   0.0000000), wk =   0.0219780
        k(   24) = (   0.3833333   0.0000000   0.0000000), wk =   0.0219780
        k(   25) = (   0.4000000   0.0000000   0.0000000), wk =   0.0219780
        k(   26) = (   0.4166667   0.0000000   0.0000000), wk =   0.0219780
        k(   27) = (   0.4333333   0.0000000   0.0000000), wk =   0.0219780
        k(   28) = (   0.4500000   0.0000000   0.0000000), wk =   0.0219780
        k(   29) = (   0.4666667   0.0000000   0.0000000), wk =   0.0219780
        k(   30) = (   0.4833333   0.0000000   0.0000000), wk =   0.0219780
        k(   31) = (   0.5000000   0.0000000   0.0000000), wk =   0.0219780
        k(   32) = (   0.5166667   0.0000000   0.0000000), wk =   0.0219780
        k(   33) = (   0.5333333   0.0000000   0.0000000), wk =   0.0219780
        k(   34) = (   0.5500000   0.0000000   0.0000000), wk =   0.0219780
        k(   35) = (   0.5666667   0.0000000   0.0000000), wk =   0.0219780
        k(   36) = (   0.5833333   0.0000000   0.0000000), wk =   0.0219780
        k(   37) = (   0.6000000   0.0000000   0.0000000), wk =   0.0219780
        k(   38) = (   0.6166667   0.0000000   0.0000000), wk =   0.0219780
        k(   39) = (   0.6333333   0.0000000   0.0000000), wk =   0.0219780
        k(   40) = (   0.6500000   0.0000000   0.0000000), wk =   0.0219780
        k(   41) = (   0.6666667   0.0000000   0.0000000), wk =   0.0219780
        k(   42) = (   0.6583333   0.0144338   0.0000000), wk =   0.0219780
        k(   43) = (   0.6500000   0.0288675   0.0000000), wk =   0.0219780
        k(   44) = (   0.6416667   0.0433013   0.0000000), wk =   0.0219780
        k(   45) = (   0.6333333   0.0577350   0.0000000), wk =   0.0219780
        k(   46) = (   0.6250000   0.0721688   0.0000000), wk =   0.0219780
        k(   47) = (   0.6166667   0.0866025   0.0000000), wk =   0.0219780
        k(   48) = (   0.6083333   0.1010363   0.0000000), wk =   0.0219780
        k(   49) = (   0.6000000   0.1154701   0.0000000), wk =   0.0219780
        k(   50) = (   0.5916667   0.1299038   0.0000000), wk =   0.0219780
        k(   51) = (   0.5833333   0.1443376   0.0000000), wk =   0.0219780
        k(   52) = (   0.5750000   0.1587713   0.0000000), wk =   0.0219780
        k(   53) = (   0.5666667   0.1732051   0.0000000), wk =   0.0219780
        k(   54) = (   0.5583333   0.1876388   0.0000000), wk =   0.0219780
        k(   55) = (   0.5500000   0.2020726   0.0000000), wk =   0.0219780
        k(   56) = (   0.5416667   0.2165064   0.0000000), wk =   0.0219780
        k(   57) = (   0.5333333   0.2309401   0.0000000), wk =   0.0219780
        k(   58) = (   0.5250000   0.2453739   0.0000000), wk =   0.0219780
        k(   59) = (   0.5166667   0.2598076   0.0000000), wk =   0.0219780
        k(   60) = (   0.5083333   0.2742414   0.0000000), wk =   0.0219780
        k(   61) = (   0.5000000   0.2886751   0.0000000), wk =   0.0219780
        k(   62) = (   0.4833333   0.2790526   0.0000000), wk =   0.0219780
        k(   63) = (   0.4666667   0.2694301   0.0000000), wk =   0.0219780
        k(   64) = (   0.4500000   0.2598076   0.0000000), wk =   0.0219780
        k(   65) = (   0.4333333   0.2501851   0.0000000), wk =   0.0219780
        k(   66) = (   0.4166667   0.2405626   0.0000000), wk =   0.0219780
        k(   67) = (   0.4000000   0.2309401   0.0000000), wk =   0.0219780
        k(   68) = (   0.3833333   0.2213176   0.0000000), wk =   0.0219780
        k(   69) = (   0.3666667   0.2116951   0.0000000), wk =   0.0219780
        k(   70) = (   0.3500000   0.2020726   0.0000000), wk =   0.0219780
        k(   71) = (   0.3333333   0.1924501   0.0000000), wk =   0.0219780
        k(   72) = (   0.3166667   0.1828276   0.0000000), wk =   0.0219780
        k(   73) = (   0.3000000   0.1732051   0.0000000), wk =   0.0219780
        k(   74) = (   0.2833333   0.1635826   0.0000000), wk =   0.0219780
        k(   75) = (   0.2666667   0.1539601   0.0000000), wk =   0.0219780
        k(   76) = (   0.2500000   0.1443376   0.0000000), wk =   0.0219780
        k(   77) = (   0.2333333   0.1347151   0.0000000), wk =   0.0219780
        k(   78) = (   0.2166667   0.1250926   0.0000000), wk =   0.0219780
        k(   79) = (   0.2000000   0.1154701   0.0000000), wk =   0.0219780
        k(   80) = (   0.1833333   0.1058475   0.0000000), wk =   0.0219780
        k(   81) = (   0.1666667   0.0962250   0.0000000), wk =   0.0219780
        k(   82) = (   0.1500000   0.0866025   0.0000000), wk =   0.0219780
        k(   83) = (   0.1333333   0.0769800   0.0000000), wk =   0.0219780
        k(   84) = (   0.1166667   0.0673575   0.0000000), wk =   0.0219780
        k(   85) = (   0.1000000   0.0577350   0.0000000), wk =   0.0219780
        k(   86) = (   0.0833333   0.0481125   0.0000000), wk =   0.0219780
        k(   87) = (   0.0666667   0.0384900   0.0000000), wk =   0.0219780
        k(   88) = (   0.0500000   0.0288675   0.0000000), wk =   0.0219780
        k(   89) = (   0.0333333   0.0192450   0.0000000), wk =   0.0219780
        k(   90) = (   0.0166667   0.0096225   0.0000000), wk =   0.0219780
        k(   91) = (   0.0000000   0.0000000   0.0000000), wk =   0.0219780

     Dense  grid:   455489 G-vectors     FFT dimensions: (  64,  64, 270)

     Smooth grid:   160939 G-vectors     FFT dimensions: (  45,  45, 192)

     Estimated max dynamical RAM per process >     244.93 MB

     Estimated total dynamical RAM >       1.44 GB

     The potential is recalculated from file :
     ../tmp/stanene.save/charge-density


     negative rho (up, down):  1.716E-05 0.000E+00
     Starting wfcs are   18 randomized atomic wfcs

     Band Structure Calculation
     Davidson diagonalization with overlap

     ethr =  3.57E-09,  avg # of iterations = 19.2

     total cpu time spent up to now is     2470.4 secs

     End of band structure calculation

          k = 0.0000 0.0000 0.0000 ( 20025 PWs)   bands (ev):

   -21.6156 -21.6156 -21.5185 -21.5185 -21.4788 -21.3946 -21.2383 -21.2383
   -21.1843 -21.1843 -11.0722  -4.9378  -2.1050  -2.1050  -1.5890   0.0656

          k = 0.0167 0.0000 0.0000 ( 20053 PWs)   bands (ev):

   -21.6157 -21.6157 -21.5185 -21.5183 -21.4788 -21.3945 -21.2387 -21.2387
   -21.1840 -21.1839 -11.0704  -4.9397  -2.1583  -2.1092  -1.5344   0.0661

          k = 0.0333 0.0000 0.0000 ( 20039 PWs)   bands (ev):

   -21.6161 -21.6161 -21.5184 -21.5177 -21.4785 -21.3941 -21.2400 -21.2398
   -21.1833 -21.1828 -11.0650  -4.9456  -2.2786  -2.1220  -1.4104   0.0673

          k = 0.0500 0.0000 0.0000 ( 20033 PWs)   bands (ev):

   -21.6168 -21.6167 -21.5183 -21.5167 -21.4781 -21.3933 -21.2419 -21.2416
   -21.1821 -21.1810 -11.0560  -4.9560  -2.4215  -2.1431  -1.2611   0.0693

          k = 0.0667 0.0000 0.0000 ( 20023 PWs)   bands (ev):

   -21.6177 -21.6175 -21.5183 -21.5153 -21.4775 -21.3923 -21.2444 -21.2439
   -21.1807 -21.1787 -11.0434  -4.9714  -2.5691  -2.1724  -1.1043   0.0719

          k = 0.0833 0.0000 0.0000 ( 20017 PWs)   bands (ev):

   -21.6188 -21.6184 -21.5183 -21.5137 -21.4767 -21.3910 -21.2474 -21.2466
   -21.1790 -21.1759 -11.0273  -4.9928  -2.7138  -2.2098  -0.9472   0.0746

          k = 0.1000 0.0000 0.0000 ( 20001 PWs)   bands (ev):

   -21.6202 -21.6194 -21.5184 -21.5118 -21.4757 -21.3895 -21.2507 -21.2496
   -21.1773 -21.1728 -11.0076  -5.0213  -2.8513  -2.2551  -0.7934   0.0771

          k = 0.1167 0.0000 0.0000 ( 20029 PWs)   bands (ev):

   -21.6217 -21.6205 -21.5186 -21.5098 -21.4744 -21.3877 -21.2543 -21.2529
   -21.1757 -21.1695 -10.9843  -5.0583  -2.9787  -2.3078  -0.6450   0.0789

          k = 0.1333 0.0000 0.0000 ( 20035 PWs)   bands (ev):

   -21.6234 -21.6216 -21.5191 -21.5076 -21.4728 -21.3856 -21.2581 -21.2563
   -21.1741 -21.1659 -10.9575  -5.1050  -3.0934  -2.3676  -0.5035   0.0793

          k = 0.1500 0.0000 0.0000 ( 20063 PWs)   bands (ev):

   -21.6253 -21.6227 -21.5198 -21.5054 -21.4710 -21.3833 -21.2619 -21.2598
   -21.1728 -21.1622 -10.9271  -5.1627  -3.1935  -2.4340  -0.3693   0.0775

          k = 0.1667 0.0000 0.0000 ( 20061 PWs)   bands (ev):

   -21.6273 -21.6236 -21.5207 -21.5031 -21.4689 -21.3808 -21.2658 -21.2634
   -21.1716 -21.1583 -10.8933  -5.2321  -3.2776  -2.5065  -0.2427   0.0727

          k = 0.1833 0.0000 0.0000 ( 20065 PWs)   bands (ev):

   -21.6293 -21.6245 -21.5219 -21.5008 -21.4666 -21.3782 -21.2696 -21.2669
   -21.1707 -21.1544 -10.8559  -5.3135  -3.3451  -2.5844  -0.1233   0.0638

          k = 0.2000 0.0000 0.0000 ( 20079 PWs)   bands (ev):

   -21.6315 -21.6252 -21.5233 -21.4985 -21.4640 -21.3754 -21.2734 -21.2704
   -21.1701 -21.1504 -10.8152  -5.4064  -3.3960  -2.6672  -0.0103   0.0500

          k = 0.2167 0.0000 0.0000 ( 20085 PWs)   bands (ev):

   -21.6337 -21.6257 -21.5250 -21.4962 -21.4612 -21.3726 -21.2771 -21.2739
   -21.1698 -21.1464 -10.7710  -5.5100  -3.4311  -2.7542   0.0303   0.0970

          k = 0.2333 0.0000 0.0000 ( 20083 PWs)   bands (ev):

   -21.6360 -21.6260 -21.5269 -21.4939 -21.4582 -21.3698 -21.2807 -21.2771
   -21.1698 -21.1422 -10.7234  -5.6227  -3.4514  -2.8448   0.0041   0.1997

          k = 0.2500 0.0000 0.0000 ( 20099 PWs)   bands (ev):

   -21.6383 -21.6262 -21.5291 -21.4917 -21.4550 -21.3670 -21.2842 -21.2802
   -21.1702 -21.1381 -10.6726  -5.7429  -3.4584  -2.9382  -0.0290   0.2989

          k = 0.2667 0.0000 0.0000 ( 20111 PWs)   bands (ev):

   -21.6407 -21.6261 -21.5314 -21.4896 -21.4516 -21.3644 -21.2875 -21.2830
   -21.1709 -21.1340 -10.6184  -5.8692  -3.4536  -3.0338  -0.0693   0.3954

          k = 0.2833 0.0000 0.0000 ( 20127 PWs)   bands (ev):

   -21.6431 -21.6259 -21.5339 -21.4874 -21.4482 -21.3620 -21.2906 -21.2855
   -21.1720 -21.1298 -10.5610  -5.9999  -3.4384  -3.1310  -0.1167   0.4901

          k = 0.3000 0.0000 0.0000 ( 20141 PWs)   bands (ev):

   -21.6455 -21.6254 -21.5366 -21.4853 -21.4446 -21.3600 -21.2936 -21.2876
   -21.1735 -21.1256 -10.5005  -6.1337  -3.4142  -3.2292  -0.1709   0.5839

          k = 0.3167 0.0000 0.0000 ( 20119 PWs)   bands (ev):

   -21.6479 -21.6247 -21.5394 -21.4832 -21.4409 -21.3583 -21.2965 -21.2892
   -21.1753 -21.1215 -10.4368  -6.2694  -3.3819  -3.3279  -0.2313   0.6772

          k = 0.3333 0.0000 0.0000 ( 20113 PWs)   bands (ev):

   -21.6503 -21.6238 -21.5423 -21.4810 -21.4372 -21.3572 -21.2992 -21.2904
   -21.1775 -21.1173 -10.3702  -6.4060  -3.4264  -3.3426  -0.2974   0.7707

          k = 0.3500 0.0000 0.0000 ( 20101 PWs)   bands (ev):

   -21.6528 -21.6227 -21.5452 -21.4788 -21.4334 -21.3566 -21.3017 -21.2909
   -21.1800 -21.1132 -10.3006  -6.5428  -3.5243  -3.2972  -0.3685   0.8648

          k = 0.3667 0.0000 0.0000 ( 20107 PWs)   bands (ev):

   -21.6552 -21.6214 -21.5482 -21.4766 -21.4295 -21.3565 -21.3042 -21.2909
   -21.1829 -21.1092 -10.2283  -6.6789  -3.6210  -3.2462  -0.4439   0.9598

          k = 0.3833 0.0000 0.0000 ( 20125 PWs)   bands (ev):

   -21.6575 -21.6200 -21.5512 -21.4744 -21.4256 -21.3570 -21.3066 -21.2904
   -21.1861 -21.1052 -10.1533  -6.8140  -3.7162  -3.1904  -0.5229   1.0560

          k = 0.4000 0.0000 0.0000 ( 20121 PWs)   bands (ev):

   -21.6599 -21.6184 -21.5542 -21.4720 -21.4217 -21.3580 -21.3088 -21.2894
   -21.1895 -21.1013 -10.0757  -6.9474  -3.8094  -3.1301  -0.6048   1.1536

          k = 0.4167 0.0000 0.0000 ( 20119 PWs)   bands (ev):

   -21.6622 -21.6167 -21.5571 -21.4696 -21.4178 -21.3594 -21.3111 -21.2879
   -21.1933 -21.0974  -9.9957  -7.0789  -3.9001  -3.0661  -0.6889   1.2525

          k = 0.4333 0.0000 0.0000 ( 20121 PWs)   bands (ev):

   -21.6645 -21.6149 -21.5600 -21.4670 -21.4139 -21.3610 -21.3133 -21.2862
   -21.1973 -21.0937  -9.9134  -7.2081  -3.9880  -2.9985  -0.7747   1.3527

          k = 0.4500 0.0000 0.0000 ( 20137 PWs)   bands (ev):

   -21.6667 -21.6130 -21.5628 -21.4644 -21.4100 -21.3629 -21.3155 -21.2843
   -21.2015 -21.0901  -9.8292  -7.3347  -4.0727  -2.9279  -0.8616   1.4539

          k = 0.4667 0.0000 0.0000 ( 20129 PWs)   bands (ev):

   -21.6688 -21.6110 -21.5655 -21.4616 -21.4062 -21.3650 -21.3178 -21.2822
   -21.2059 -21.0867  -9.7431  -7.4586  -4.1536  -2.8547  -0.9490   1.5553

          k = 0.4833 0.0000 0.0000 ( 20145 PWs)   bands (ev):

   -21.6709 -21.6090 -21.5682 -21.4588 -21.4023 -21.3670 -21.3202 -21.2799
   -21.2104 -21.0835  -9.6554  -7.5795  -4.2306  -2.7793  -1.0367   1.6554

          k = 0.5000 0.0000 0.0000 ( 20149 PWs)   bands (ev):

   -21.6729 -21.6070 -21.5707 -21.4559 -21.3986 -21.3690 -21.3227 -21.2776
   -21.2149 -21.0804  -9.5663  -7.6973  -4.3031  -2.7019  -1.1241   1.7506

          k = 0.5167 0.0000 0.0000 ( 20159 PWs)   bands (ev):

   -21.6747 -21.6049 -21.5730 -21.4530 -21.3949 -21.3709 -21.3254 -21.2753
   -21.2195 -21.0775  -9.4762  -7.8118  -4.3708  -2.6231  -1.2108   1.8322

          k = 0.5333 0.0000 0.0000 ( 20151 PWs)   bands (ev):

   -21.6765 -21.6029 -21.5753 -21.4501 -21.3913 -21.3725 -21.3284 -21.2730
   -21.2241 -21.0749  -9.3854  -7.9230  -4.4333  -2.5433  -1.2967   1.8824

          k = 0.5500 0.0000 0.0000 ( 20149 PWs)   bands (ev):

   -21.6781 -21.6010 -21.5774 -21.4472 -21.3878 -21.3738 -21.3316 -21.2706
   -21.2286 -21.0725  -9.2942  -8.0307  -4.4901  -2.4628  -1.3813   1.8901

          k = 0.5667 0.0000 0.0000 ( 20149 PWs)   bands (ev):

   -21.6795 -21.5990 -21.5794 -21.4445 -21.3846 -21.3745 -21.3351 -21.2683
   -21.2330 -21.0704  -9.2030  -8.1348  -4.5408  -2.3821  -1.4645   1.8703

          k = 0.5833 0.0000 0.0000 ( 20137 PWs)   bands (ev):

   -21.6807 -21.5972 -21.5813 -21.4421 -21.3818 -21.3744 -21.3389 -21.2659
   -21.2371 -21.0686  -9.1123  -8.2353  -4.5850  -2.3018  -1.5460   1.8414

          k = 0.6000 0.0000 0.0000 ( 20127 PWs)   bands (ev):

   -21.6818 -21.5954 -21.5831 -21.4400 -21.3797 -21.3732 -21.3430 -21.2636
   -21.2410 -21.0671  -9.0224  -8.3322  -4.6221  -2.2223  -1.6256   1.8123

          k = 0.6167 0.0000 0.0000 ( 20141 PWs)   bands (ev):

   -21.6826 -21.5937 -21.5848 -21.4383 -21.3781 -21.3711 -21.3474 -21.2612
   -21.2447 -21.0659  -8.9339  -8.4253  -4.6518  -2.1441  -1.7032   1.7871

          k = 0.6333 0.0000 0.0000 ( 20139 PWs)   bands (ev):

   -21.6832 -21.5921 -21.5863 -21.4371 -21.3765 -21.3687 -21.3519 -21.2588
   -21.2480 -21.0650  -8.8473  -8.5146  -4.6736  -2.0677  -1.7786   1.7677

          k = 0.6500 0.0000 0.0000 ( 20133 PWs)   bands (ev):

   -21.6836 -21.5906 -21.5878 -21.4364 -21.3747 -21.3667 -21.3558 -21.2563
   -21.2510 -21.0645  -8.7631  -8.6001  -4.6869  -1.9937  -1.8518   1.7555

          k = 0.6667 0.0000 0.0000 ( 20133 PWs)   bands (ev):

   -21.6837 -21.5894 -21.5891 -21.4361 -21.3736 -21.3662 -21.3575 -21.2539
   -21.2537 -21.0643  -8.6832  -8.6803  -4.6915  -1.9244  -1.9206   1.7513

          k = 0.6583 0.0144 0.0000 ( 20121 PWs)   bands (ev):

   -21.6836 -21.5906 -21.5879 -21.4363 -21.3756 -21.3654 -21.3563 -21.2562
   -21.2511 -21.0645  -8.7595  -8.6038  -4.6868  -1.9908  -1.8548   1.7557

          k = 0.6500 0.0289 0.0000 ( 20129 PWs)   bands (ev):

   -21.6832 -21.5918 -21.5867 -21.4369 -21.3806 -21.3626 -21.3540 -21.2584
   -21.2483 -21.0651  -8.8334  -8.5297  -4.6726  -2.0566  -1.7908   1.7691

          k = 0.6417 0.0433 0.0000 ( 20131 PWs)   bands (ev):

   -21.6825 -21.5931 -21.5855 -21.4377 -21.3867 -21.3590 -21.3515 -21.2603
   -21.2454 -21.0660  -8.9033  -8.4600  -4.6486  -2.1198  -1.7311   1.7918

          k = 0.6333 0.0577 0.0000 ( 20139 PWs)   bands (ev):

   -21.6816 -21.5943 -21.5845 -21.4388 -21.3932 -21.3551 -21.3489 -21.2620
   -21.2422 -21.0672  -8.9693  -8.3948  -4.6147  -2.1804  -1.6759   1.8238

          k = 0.6250 0.0722 0.0000 ( 20123 PWs)   bands (ev):

   -21.6804 -21.5955 -21.5835 -21.4399 -21.4000 -21.3511 -21.3463 -21.2635
   -21.2389 -21.0688  -9.0314  -8.3346  -4.5709  -2.2384  -1.6253   1.8649

          k = 0.6167 0.0866 0.0000 ( 20131 PWs)   bands (ev):

   -21.6789 -21.5968 -21.5826 -21.4412 -21.4068 -21.3471 -21.3437 -21.2649
   -21.2353 -21.0708  -9.0894  -8.2795  -4.5172  -2.2940  -1.5796   1.7926

          k = 0.6083 0.1010 0.0000 ( 20139 PWs)   bands (ev):

   -21.6772 -21.5980 -21.5818 -21.4424 -21.4137 -21.3432 -21.3413 -21.2660
   -21.2314 -21.0731  -9.1435  -8.2295  -4.4542  -2.3472  -1.5387   1.5594

          k = 0.6000 0.1155 0.0000 ( 20161 PWs)   bands (ev):

   -21.6753 -21.5993 -21.5811 -21.4437 -21.4204 -21.3399 -21.3386 -21.2671
   -21.2273 -21.0758  -9.1936  -8.1847  -4.3821  -2.3980  -1.5025   1.3297

          k = 0.5917 0.1299 0.0000 ( 20163 PWs)   bands (ev):

   -21.6731 -21.6006 -21.5804 -21.4450 -21.4270 -21.3374 -21.3355 -21.2680
   -21.2229 -21.0787  -9.2398  -8.1449  -4.3017  -2.4468  -1.4709   1.1054

          k = 0.5833 0.1443 0.0000 ( 20135 PWs)   bands (ev):

   -21.6707 -21.6021 -21.5798 -21.4462 -21.4333 -21.3353 -21.3324 -21.2688
   -21.2183 -21.0819  -9.2819  -8.1100  -4.2140  -2.4937  -1.4435   0.8882

          k = 0.5750 0.1588 0.0000 ( 20127 PWs)   bands (ev):

   -21.6682 -21.6036 -21.5793 -21.4473 -21.4393 -21.3334 -21.3295 -21.2695
   -21.2135 -21.0853  -9.3200  -8.0797  -4.1199  -2.5391  -1.4201   0.6801

          k = 0.5667 0.1732 0.0000 ( 20141 PWs)   bands (ev):

   -21.6655 -21.6051 -21.5788 -21.4484 -21.4449 -21.3318 -21.3270 -21.2701
   -21.2086 -21.0889  -9.3541  -8.0537  -4.0210  -2.5832  -1.4004   0.4829

          k = 0.5583 0.1876 0.0000 ( 20151 PWs)   bands (ev):

   -21.6627 -21.6068 -21.5784 -21.4502 -21.4491 -21.3303 -21.3248 -21.2707
   -21.2036 -21.0927  -9.3842  -8.0317  -3.9188  -2.6267  -1.3839   0.2987

          k = 0.5500 0.2021 0.0000 ( 20163 PWs)   bands (ev):

   -21.6600 -21.6085 -21.5781 -21.4547 -21.4501 -21.3289 -21.3229 -21.2711
   -21.1987 -21.0964  -9.4103  -8.0134  -3.8154  -2.6698  -1.3704   0.1299

          k = 0.5417 0.2165 0.0000 ( 20154 PWs)   bands (ev):

   -21.6573 -21.6102 -21.5778 -21.4587 -21.4508 -21.3278 -21.3213 -21.2715
   -21.1940 -21.1001  -9.4323  -7.9984  -3.7132  -2.7129  -1.3596  -0.0206

          k = 0.5333 0.2309 0.0000 ( 20166 PWs)   bands (ev):

   -21.6547 -21.6118 -21.5776 -21.4620 -21.4514 -21.3269 -21.3200 -21.2719
   -21.1897 -21.1036  -9.4504  -7.9866  -3.6154  -2.7559  -1.3511  -0.1500

          k = 0.5250 0.2454 0.0000 ( 20148 PWs)   bands (ev):

   -21.6525 -21.6134 -21.5774 -21.4647 -21.4519 -21.3261 -21.3190 -21.2721
   -21.1859 -21.1067  -9.4645  -7.9777  -3.5262  -2.7977  -1.3448  -0.2552

          k = 0.5167 0.2598 0.0000 ( 20148 PWs)   bands (ev):

   -21.6507 -21.6146 -21.5772 -21.4666 -21.4522 -21.3256 -21.3183 -21.2723
   -21.1830 -21.1091  -9.4745  -7.9715  -3.4518  -2.8357  -1.3405  -0.3330

          k = 0.5083 0.2742 0.0000 ( 20132 PWs)   bands (ev):

   -21.6495 -21.6155 -21.5772 -21.4678 -21.4524 -21.3253 -21.3179 -21.2724
   -21.1811 -21.1107  -9.4805  -7.9678  -3.4004  -2.8639  -1.3379  -0.3809

          k = 0.5000 0.2887 0.0000 ( 20152 PWs)   bands (ev):

   -21.6491 -21.6158 -21.5771 -21.4682 -21.4525 -21.3252 -21.3178 -21.2724
   -21.1804 -21.1112  -9.4825  -7.9666  -3.3817  -2.8746  -1.3370  -0.3971

          k = 0.4833 0.2791 0.0000 ( 20140 PWs)   bands (ev):

   -21.6491 -21.6161 -21.5767 -21.4681 -21.4526 -21.3250 -21.3178 -21.2728
   -21.1802 -21.1114  -9.4945  -7.9504  -3.3793  -2.8814  -1.3292  -0.3939

          k = 0.4667 0.2694 0.0000 ( 20146 PWs)   bands (ev):

   -21.6489 -21.6169 -21.5755 -21.4679 -21.4530 -21.3246 -21.3180 -21.2740
   -21.1795 -21.1117  -9.5290  -7.9036  -3.3719  -2.9010  -1.3062  -0.3845

          k = 0.4500 0.2598 0.0000 ( 20144 PWs)   bands (ev):

   -21.6487 -21.6181 -21.5736 -21.4675 -21.4536 -21.3238 -21.3183 -21.2758
   -21.1784 -21.1123  -9.5821  -7.8299  -3.3597  -2.9321  -1.2697  -0.3690

          k = 0.4333 0.2502 0.0000 ( 20169 PWs)   bands (ev):

   -21.6483 -21.6197 -21.5711 -21.4670 -21.4545 -21.3228 -21.3187 -21.2782
   -21.1770 -21.1132  -9.6492  -7.7340  -3.3427  -2.9725  -1.2217  -0.3475

          k = 0.4167 0.2406 0.0000 ( 20157 PWs)   bands (ev):

   -21.6479 -21.6213 -21.5683 -21.4664 -21.4556 -21.3215 -21.3194 -21.2809
   -21.1753 -21.1143  -9.7259  -7.6206  -3.3209  -3.0201  -1.1646  -0.3205

          k = 0.4000 0.2309 0.0000 ( 20153 PWs)   bands (ev):

   -21.6474 -21.6230 -21.5652 -21.4657 -21.4570 -21.3205 -21.3199 -21.2837
   -21.1736 -21.1156  -9.8087  -7.4933  -3.2944  -3.0726  -1.1006  -0.2885

          k = 0.3833 0.2213 0.0000 ( 20169 PWs)   bands (ev):

   -21.6467 -21.6246 -21.5619 -21.4649 -21.4586 -21.3220 -21.3180 -21.2863
   -21.1718 -21.1171  -9.8947  -7.3552  -3.2634  -3.1280  -1.0320  -0.2522

          k = 0.3667 0.2117 0.0000 ( 20153 PWs)   bands (ev):

   -21.6460 -21.6261 -21.5585 -21.4641 -21.4604 -21.3241 -21.3158 -21.2886
   -21.1700 -21.1189  -9.9821  -7.2085  -3.2278  -3.1844  -0.9602  -0.2126

          k = 0.3500 0.2021 0.0000 ( 20151 PWs)   bands (ev):

   -21.6451 -21.6275 -21.5551 -21.4634 -21.4625 -21.3269 -21.3133 -21.2902
   -21.1684 -21.1209 -10.0692  -7.0551  -3.2402  -3.1879  -0.8867  -0.1710

          k = 0.3333 0.1925 0.0000 ( 20145 PWs)   bands (ev):

   -21.6442 -21.6286 -21.5517 -21.4649 -21.4627 -21.3303 -21.3105 -21.2911
   -21.1669 -21.1231 -10.1550  -6.8966  -3.2941  -3.1439  -0.8126  -0.1287

          k = 0.3167 0.1828 0.0000 ( 20137 PWs)   bands (ev):

   -21.6431 -21.6295 -21.5483 -21.4674 -21.4622 -21.3344 -21.3075 -21.2913
   -21.1657 -21.1255 -10.2388  -6.7343  -3.3447  -3.0958  -0.7386  -0.0873

          k = 0.3000 0.1732 0.0000 ( 20131 PWs)   bands (ev):

   -21.6419 -21.6301 -21.5450 -21.4702 -21.4618 -21.3388 -21.3043 -21.2908
   -21.1647 -21.1281 -10.3199  -6.5696  -3.3908  -3.0440  -0.6656  -0.0485

          k = 0.2833 0.1636 0.0000 ( 20117 PWs)   bands (ev):

   -21.6406 -21.6305 -21.5418 -21.4731 -21.4616 -21.3436 -21.3008 -21.2896
   -21.1640 -21.1309 -10.3978  -6.4038  -3.4309  -2.9888  -0.5943  -0.0137

          k = 0.2667 0.1540 0.0000 ( 20103 PWs)   bands (ev):

   -21.6392 -21.6307 -21.5387 -21.4762 -21.4617 -21.3486 -21.2971 -21.2879
   -21.1635 -21.1339 -10.4723  -6.2385  -3.4636  -2.9303  -0.5256   0.0158

          k = 0.2500 0.1443 0.0000 ( 20087 PWs)   bands (ev):

   -21.6376 -21.6305 -21.5357 -21.4795 -21.4621 -21.3535 -21.2932 -21.2857
   -21.1634 -21.1371 -10.5430  -6.0753  -3.4873  -2.8691  -0.4609   0.0391

          k = 0.2333 0.1347 0.0000 ( 20093 PWs)   bands (ev):

   -21.6360 -21.6301 -21.5329 -21.4828 -21.4627 -21.3584 -21.2891 -21.2830
   -21.1636 -21.1404 -10.6098  -5.9162  -3.5002  -2.8055  -0.4022   0.0561

          k = 0.2167 0.1251 0.0000 ( 20073 PWs)   bands (ev):

   -21.6343 -21.6295 -21.5303 -21.4863 -21.4637 -21.3631 -21.2849 -21.2800
   -21.1641 -21.1439 -10.6724  -5.7634  -3.5001  -2.7399  -0.3526   0.0669

          k = 0.2000 0.1155 0.0000 ( 20069 PWs)   bands (ev):

   -21.6325 -21.6287 -21.5279 -21.4898 -21.4649 -21.3676 -21.2805 -21.2766
   -21.1649 -21.1475 -10.7307  -5.6195  -3.4848  -2.6730  -0.3163   0.0727

          k = 0.1833 0.1058 0.0000 ( 20085 PWs)   bands (ev):

   -21.6306 -21.6277 -21.5257 -21.4933 -21.4664 -21.3718 -21.2761 -21.2730
   -21.1661 -21.1512 -10.7847  -5.4870  -3.4518  -2.6055  -0.2996   0.0753

          k = 0.1667 0.0962 0.0000 ( 20113 PWs)   bands (ev):

   -21.6287 -21.6264 -21.5238 -21.4968 -21.4680 -21.3757 -21.2716 -21.2691
   -21.1675 -21.1550 -10.8341  -5.3685  -3.3989  -2.5379  -0.3096   0.0768

          k = 0.1500 0.0866 0.0000 ( 20091 PWs)   bands (ev):

   -21.6268 -21.6251 -21.5221 -21.5002 -21.4697 -21.3792 -21.2671 -21.2651
   -21.1691 -21.1588 -10.8791  -5.2658  -3.3247  -2.4714  -0.3521   0.0784

          k = 0.1333 0.0770 0.0000 ( 20087 PWs)   bands (ev):

   -21.6249 -21.6237 -21.5208 -21.5035 -21.4715 -21.3824 -21.2626 -21.2610
   -21.1710 -21.1627 -10.9194  -5.1797  -3.2287  -2.4067  -0.4296   0.0799

          k = 0.1167 0.0674 0.0000 ( 20049 PWs)   bands (ev):

   -21.6231 -21.6222 -21.5197 -21.5066 -21.4732 -21.3853 -21.2581 -21.2569
   -21.1730 -21.1665 -10.9551  -5.1101  -3.1118  -2.3451  -0.5399   0.0802

          k = 0.1000 0.0577 0.0000 ( 20023 PWs)   bands (ev):

   -21.6213 -21.6207 -21.5190 -21.5094 -21.4747 -21.3877 -21.2539 -21.2529
   -21.1752 -21.1703 -10.9861  -5.0556  -2.9760  -2.2877  -0.6779   0.0791

          k = 0.0833 0.0481 0.0000 ( 20005 PWs)   bands (ev):

   -21.6197 -21.6194 -21.5186 -21.5120 -21.4760 -21.3898 -21.2498 -21.2491
   -21.1774 -21.1739 -11.0123  -5.0142  -2.8244  -2.2359  -0.8369   0.0766

          k = 0.0667 0.0385 0.0000 ( 20015 PWs)   bands (ev):

   -21.6183 -21.6181 -21.5184 -21.5142 -21.4771 -21.3916 -21.2461 -21.2456
   -21.1795 -21.1772 -11.0339  -4.9838  -2.6610  -2.1911  -1.0099   0.0736

          k = 0.0500 0.0289 0.0000 ( 20023 PWs)   bands (ev):

   -21.6172 -21.6170 -21.5183 -21.5160 -21.4779 -21.3929 -21.2430 -21.2426
   -21.1814 -21.1800 -11.0506  -4.9624  -2.4906  -2.1545  -1.1894   0.0705

          k = 0.0333 0.0192 0.0000 ( 20043 PWs)   bands (ev):

   -21.6163 -21.6162 -21.5184 -21.5174 -21.4784 -21.3939 -21.2405 -21.2403
   -21.1829 -21.1823 -11.0626  -4.9483  -2.3217  -2.1273  -1.3658   0.0679

          k = 0.0167 0.0096 0.0000 ( 20045 PWs)   bands (ev):

   -21.6158 -21.6157 -21.5184 -21.5182 -21.4787 -21.3944 -21.2389 -21.2388
   -21.1840 -21.1838 -11.0698  -4.9404  -2.1741  -2.1106  -1.5182   0.0662

          k = 0.0000 0.0000 0.0000 ( 20025 PWs)   bands (ev):

   -21.6156 -21.6156 -21.5185 -21.5185 -21.4788 -21.3946 -21.2383 -21.2383
   -21.1843 -21.1843 -11.0722  -4.9378  -2.1050  -2.1050  -1.5890   0.0656

     Writing all to output data dir ../tmp/stanene.save/

     init_run     :      5.48s CPU     15.39s WALL (       1 calls)
     electrons    :   1285.76s CPU   2451.69s WALL (       1 calls)

     Called by init_run:
     wfcinit      :      0.00s CPU      0.00s WALL (       1 calls)
     potinit      :      0.65s CPU      2.24s WALL (       1 calls)
     hinit0       :      1.08s CPU      2.63s WALL (       1 calls)

     Called by electrons:
     c_bands      :   1285.75s CPU   2451.64s WALL (       1 calls)
     v_of_rho     :      0.22s CPU      0.44s WALL (       1 calls)
     newd         :      3.49s CPU      9.72s WALL (       1 calls)

     Called by c_bands:
     init_us_2    :      0.13s CPU      0.12s WALL (      91 calls)
     init_us_2:cp :      0.13s CPU      0.12s WALL (      91 calls)
     cegterg      :   1204.95s CPU   2292.88s WALL (     113 calls)

     Called by *egterg:
     cdiaghg      :     66.72s CPU    155.56s WALL (    1834 calls)
     h_psi        :    595.99s CPU   1207.85s WALL (    1947 calls)
     s_psi        :     17.38s CPU     34.16s WALL (    1947 calls)
     g_psi        :      0.27s CPU      0.21s WALL (    1743 calls)

     Called by h_psi:
     h_psi:calbec :    306.92s CPU    582.20s WALL (    1947 calls)
     vloc_psi     :    239.46s CPU    508.90s WALL (    1947 calls)
     add_vuspsi   :     49.38s CPU    116.19s WALL (    1947 calls)

     General routines
     calbec       :    306.91s CPU    582.10s WALL (    1947 calls)
     fft          :      0.76s CPU      1.94s WALL (      13 calls)
     ffts         :      0.21s CPU      1.03s WALL (       1 calls)
     fftw         :    229.95s CPU    496.51s WALL (   33224 calls)
     interpolate  :      0.24s CPU      1.10s WALL (       1 calls)
     davcio       :      0.16s CPU      0.28s WALL (     182 calls)

     Parallel routines

     PWSCF        :  21m32.70s CPU  41m11.19s WALL


   This run was terminated on:  15:40:45  31Jan2024            

=------------------------------------------------------------------------------=
   JOB DONE.
=------------------------------------------------------------------------------=
