
     Program PWSCF v.7.2 starts on 31Jan2024 at 14:59:33 

     This program is part of the open-source Quantum ESPRESSO suite
     for quantum simulation of materials; please cite
         "P. Giannozzi et al., J. Phys.:Condens. Matter 21 395502 (2009);
         "P. Giannozzi et al., J. Phys.:Condens. Matter 29 465901 (2017);
         "P. Giannozzi et al., J. Chem. Phys. 152 154105 (2020);
          URL http://www.quantum-espresso.org", 
     in publications or presentations arising from this work. More details at
     http://www.quantum-espresso.org/quote

     Parallel version (MPI), running on     6 processors

     MPI processes distributed on     1 nodes
     4245 MiB available memory on the printing compute node when the environment starts

     Waiting for input...
     Reading input from standard input

     Current dimensions of program PWSCF are:
     Max number of different atomic species (ntypx) = 10
     Max number of k-points (npk) =  40000
     Max angular momentum in pseudopotentials (lmaxx) =  4

     R & G space division:  proc/nbgrp/npool/nimage =       6
     Subspace diagonalization in iterative solution of the eigenvalue problem:
     a serial algorithm will be used


     Parallelization info
     --------------------
     sticks:   dense  smooth     PW     G-vecs:    dense   smooth      PW
     Min         214     214     60                26776    26776    3950
     Max         215     215     61                26799    26799    3963
     Sum        1285    1285    361               160699   160699   23727

     Using Slab Decomposition



     bravais-lattice index     =            4
     lattice parameter (alat)  =       8.8439  a.u.
     unit-cell volume          =    2560.0529 (a.u.)^3
     number of atoms/cell      =            2
     number of atomic types    =            1
     number of electrons       =        28.00
     number of Kohn-Sham states=           18
     kinetic-energy cutoff     =      60.0000  Ry
     charge density cutoff     =     240.0000  Ry
     scf convergence threshold =      1.0E-06
     mixing beta               =       0.7000
     number of iterations used =            8  plain     mixing
     Exchange-correlation= SLA  PW   PBE  PBE
                           (   1   4   3   4   0   0   0)

     celldm(1)=   8.843918  celldm(2)=   0.000000  celldm(3)=   4.273504
     celldm(4)=   0.000000  celldm(5)=   0.000000  celldm(6)=   0.000000

     crystal axes: (cart. coord. in units of alat)
               a(1) = (   1.000000   0.000000   0.000000 )  
               a(2) = (  -0.500000   0.866025   0.000000 )  
               a(3) = (   0.000000   0.000000   4.273504 )  

     reciprocal axes: (cart. coord. in units 2 pi/alat)
               b(1) = (  1.000000  0.577350 -0.000000 )  
               b(2) = (  0.000000  1.154701  0.000000 )  
               b(3) = (  0.000000 -0.000000  0.234000 )  


     PseudoPot. # 1 for Sn read from file:
     ../pseudo/Sn_pbe_v1.uspp.F.UPF
     MD5 check sum: 4cf58ce39ec5d5d420df3dd08604eb00
     Pseudo is Ultrasoft + core correction, Zval = 14.0
     Generated by new atomic code, or converted to UPF format
     Using radial grid of  891 points,  6 beta functions with: 
                l(1) =   0
                l(2) =   0
                l(3) =   1
                l(4) =   1
                l(5) =   2
                l(6) =   2
     Q(r) pseudized with  6 coefficients,  rinner =    1.200   1.200   1.200
                                                       1.200   1.200

     atomic species   valence    mass     pseudopotential
        Sn            14.00   118.71000     Sn( 1.00)

      6 Sym. Ops. (no inversion) found



   Cartesian axes

     site n.     atom                  positions (alat units)
         1           Sn  tau(   1) = (   0.0000000   0.5773503   2.1367521  )
         2           Sn  tau(   2) = (   0.5000000   0.2886751   1.9567240  )

     number of k points=    14  Methfessel-Paxton smearing, width (Ry)=  0.0200
                       cart. coord. in units 2pi/alat
        k(    1) = (   0.0000000   0.0000000   0.0000000), wk =   0.0200000
        k(    2) = (   0.0000000   0.1154701   0.0000000), wk =   0.1200000
        k(    3) = (   0.0000000   0.2309401   0.0000000), wk =   0.1200000
        k(    4) = (   0.0000000   0.3464102   0.0000000), wk =   0.1200000
        k(    5) = (   0.0000000   0.4618802   0.0000000), wk =   0.1200000
        k(    6) = (   0.0000000  -0.5773503   0.0000000), wk =   0.0600000
        k(    7) = (   0.1000000   0.1732051   0.0000000), wk =   0.1200000
        k(    8) = (   0.1000000   0.2886751   0.0000000), wk =   0.2400000
        k(    9) = (   0.1000000   0.4041452   0.0000000), wk =   0.2400000
        k(   10) = (   0.1000000   0.5196152   0.0000000), wk =   0.2400000
        k(   11) = (   0.2000000   0.3464102   0.0000000), wk =   0.1200000
        k(   12) = (   0.2000000   0.4618802   0.0000000), wk =   0.2400000
        k(   13) = (   0.2000000   0.5773503   0.0000000), wk =   0.1200000
        k(   14) = (   0.3000000   0.5196152   0.0000000), wk =   0.1200000

     Dense  grid:   160699 G-vectors     FFT dimensions: (  45,  45, 192)

     Estimated max dynamical RAM per process >     109.30 MB

     Estimated total dynamical RAM >     655.82 MB

     Initial potential from superposition of free atoms

     starting charge      25.9999, renormalised to      28.0000

     negative rho (up, down):  4.816E-03 0.000E+00
     Starting wfcs are   18 randomized atomic wfcs

     total cpu time spent up to now is       48.3 secs

     Self-consistent Calculation

     iteration #  1     ecut=    60.00 Ry     beta= 0.70
     Davidson diagonalization with overlap
     ethr =  1.00E-02,  avg # of iterations =  9.7

     negative rho (up, down):  1.410E-03 0.000E+00

     total cpu time spent up to now is      380.6 secs

     total energy              =    -325.45253853 Ry
     estimated scf accuracy    <       2.47423851 Ry

     iteration #  2     ecut=    60.00 Ry     beta= 0.70
     Davidson diagonalization with overlap
     ethr =  8.84E-03,  avg # of iterations =  2.3

     negative rho (up, down):  2.335E-03 0.000E+00

     total cpu time spent up to now is      556.2 secs

     total energy              =    -326.35922376 Ry
     estimated scf accuracy    <       0.38463209 Ry

     iteration #  3     ecut=    60.00 Ry     beta= 0.70
     Davidson diagonalization with overlap
     ethr =  1.37E-03,  avg # of iterations =  2.2

     negative rho (up, down):  3.305E-03 0.000E+00

     total cpu time spent up to now is      722.2 secs

     total energy              =    -326.41667388 Ry
     estimated scf accuracy    <       0.00671624 Ry

     iteration #  4     ecut=    60.00 Ry     beta= 0.70
     Davidson diagonalization with overlap
     ethr =  2.40E-05,  avg # of iterations =  8.1

     negative rho (up, down):  3.587E-03 0.000E+00

     total cpu time spent up to now is     1000.5 secs

     total energy              =    -326.41886351 Ry
     estimated scf accuracy    <       0.00038597 Ry

     iteration #  5     ecut=    60.00 Ry     beta= 0.70
     Davidson diagonalization with overlap
     ethr =  1.38E-06,  avg # of iterations =  4.6

     negative rho (up, down):  3.599E-03 0.000E+00

     total cpu time spent up to now is     1154.7 secs

     total energy              =    -326.41889373 Ry
     estimated scf accuracy    <       0.00013462 Ry

     iteration #  6     ecut=    60.00 Ry     beta= 0.70
     Davidson diagonalization with overlap
     ethr =  4.81E-07,  avg # of iterations =  2.0

     negative rho (up, down):  3.611E-03 0.000E+00

     total cpu time spent up to now is     1263.8 secs

     total energy              =    -326.41891702 Ry
     estimated scf accuracy    <       0.00000757 Ry

     iteration #  7     ecut=    60.00 Ry     beta= 0.70
     Davidson diagonalization with overlap
     ethr =  2.70E-08,  avg # of iterations =  2.0

     negative rho (up, down):  3.616E-03 0.000E+00

     total cpu time spent up to now is     1380.0 secs

     End of self-consistent calculation

          k = 0.0000 0.0000 0.0000 ( 20001 PWs)   bands (ev):

   -23.5281 -23.5281 -23.4498 -23.4498 -23.4334 -23.3633 -23.2214 -23.2214
   -23.1647 -23.1647 -11.3808  -5.2726  -2.4006  -2.4006  -1.9382  -0.0991
     1.0977   1.0978

          k = 0.0000 0.1155 0.0000 ( 19999 PWs)   bands (ev):

   -23.5327 -23.5321 -23.4566 -23.4434 -23.4236 -23.3562 -23.2337 -23.2331
   -23.1586 -23.1536 -11.2960  -5.4228  -3.2167  -2.5731  -1.0333  -0.0942
     0.9934   1.5820

          k = 0.0000 0.2309 0.0000 ( 20053 PWs)   bands (ev):

   -23.5401 -23.5399 -23.4694 -23.4292 -23.4092 -23.3358 -23.2563 -23.2553
   -23.1512 -23.1342 -11.0451  -6.0237  -3.6614  -2.9396  -0.6077  -0.1329
     1.3243   1.8629

          k = 0.0000 0.3464 0.0000 ( 20081 PWs)   bands (ev):

   -23.5465 -23.5425 -23.4847 -23.4148 -23.4018 -23.3082 -23.2771 -23.2731
   -23.1509 -23.1172 -10.6426  -6.9551  -3.5686  -3.2946  -0.9122  -0.2764
     1.7351   2.3950

          k = 0.0000 0.4619 0.0000 ( 20133 PWs)   bands (ev):

   -23.5503 -23.5380 -23.5004 -23.4049 -23.4013 -23.2939 -23.2912 -23.2708
   -23.1569 -23.1060 -10.1449  -7.8506  -3.5347  -3.2700  -1.3186  -0.5224
     2.1076   2.9336

          k = 0.0000-0.5774 0.0000 ( 20096 PWs)   bands (ev):

   -23.5515 -23.5326 -23.5096 -23.4022 -23.4015 -23.2961 -23.2946 -23.2611
   -23.1613 -23.1021  -9.8314  -8.3059  -3.6185  -3.0864  -1.5363  -0.6330
     2.4220   3.1821

          k = 0.1000 0.1732 0.0000 ( 20051 PWs)   bands (ev):

   -23.5392 -23.5372 -23.4648 -23.4359 -23.4096 -23.3432 -23.2509 -23.2484
   -23.1554 -23.1369 -11.1281  -5.8084  -3.5833  -2.9318  -0.3602  -0.1443
     0.8767   1.7433

          k = 0.1000 0.2887 0.0000 ( 20093 PWs)   bands (ev):

   -23.5486 -23.5396 -23.4785 -23.4245 -23.3933 -23.3219 -23.2706 -23.2675
   -23.1572 -23.1163 -10.7994  -6.5898  -3.6135  -3.3932  -0.4773   0.0265
     1.3185   2.0688

          k = 0.1000 0.4041 0.0000 ( 20100 PWs)   bands (ev):

   -23.5556 -23.5370 -23.4943 -23.4123 -23.3860 -23.3030 -23.2862 -23.2747
   -23.1658 -23.0999 -10.3365  -7.4953  -3.8206  -3.2786  -1.0106  -0.0183
     1.9371   2.5314

          k = 0.1000 0.5196 0.0000 ( 20126 PWs)   bands (ev):

   -23.5588 -23.5306 -23.5078 -23.4019 -23.3889 -23.2996 -23.2954 -23.2626
   -23.1762 -23.0910  -9.8586  -8.2263  -4.0114  -2.9436  -1.4871  -0.1105
     2.2781   2.7925

          k = 0.2000 0.3464 0.0000 ( 20095 PWs)   bands (ev):

   -23.5594 -23.5359 -23.4919 -23.4156 -23.3710 -23.3146 -23.2842 -23.2746
   -23.1735 -23.0945 -10.4032  -7.3342  -4.0247  -3.3089  -0.8311   0.8325
     1.4249   2.4166

          k = 0.2000 0.4619 0.0000 ( 20104 PWs)   bands (ev):

   -23.5675 -23.5295 -23.5052 -23.4026 -23.3599 -23.3145 -23.2955 -23.2650
   -23.1944 -23.0786  -9.8989  -8.0935  -4.4364  -2.8935  -1.3664   1.0352
     2.0632   2.2795

          k = 0.2000 0.5774 0.0000 ( 20119 PWs)   bands (ev):

   -23.5704 -23.5243 -23.5128 -23.3945 -23.3625 -23.3068 -23.3054 -23.2552
   -23.2072 -23.0728  -9.5453  -8.5399  -4.5774  -2.6000  -1.7094   1.0451
     1.9085   2.9377

          k = 0.3000 0.5196 0.0000 ( 20105 PWs)   bands (ev):

   -23.5753 -23.5224 -23.5142 -23.3914 -23.3341 -23.3253 -23.3089 -23.2504
   -23.2237 -23.0657  -9.3741  -8.6948  -4.8050  -2.4229  -1.8363   1.6880
     2.2402   2.6383

     the Fermi energy is    -2.1956 ev

!    total energy              =    -326.41891846 Ry
     estimated scf accuracy    <       0.00000069 Ry
     smearing contrib. (-TS)   =       0.00062186 Ry
     internal energy E=F+TS    =    -326.41954033 Ry

     The total energy is F=E-TS. E is the sum of the following terms:
     one-electron contribution =    -857.39528833 Ry
     hartree contribution      =     436.39781766 Ry
     xc contribution           =     -95.01022721 Ry
     ewald contribution        =     189.58815755 Ry

     convergence has been achieved in   7 iterations

     Writing all to output data dir ../tmp/stanene.save/

     init_run     :     19.56s CPU     48.09s WALL (       1 calls)
     electrons    :    550.36s CPU   1331.84s WALL (       1 calls)

     Called by init_run:
     wfcinit      :     17.47s CPU     44.61s WALL (       1 calls)
     potinit      :      0.35s CPU      0.48s WALL (       1 calls)
     hinit0       :      0.58s CPU      0.66s WALL (       1 calls)

     Called by electrons:
     c_bands      :    490.82s CPU   1183.10s WALL (       7 calls)
     sum_band     :     49.04s CPU    120.27s WALL (       7 calls)
     v_of_rho     :      2.22s CPU      5.91s WALL (       8 calls)
     newd         :      8.15s CPU     20.36s WALL (       8 calls)
     mix_rho      :      0.79s CPU      2.77s WALL (       7 calls)

     Called by c_bands:
     init_us_2    :      0.26s CPU      0.32s WALL (     210 calls)
     init_us_2:cp :      0.26s CPU      0.32s WALL (     210 calls)
     cegterg      :    481.41s CPU   1167.82s WALL (      98 calls)

     Called by *egterg:
     cdiaghg      :     29.28s CPU     76.48s WALL (     532 calls)
     h_psi        :    285.11s CPU    723.13s WALL (     546 calls)
     s_psi        :      5.02s CPU     10.29s WALL (     546 calls)
     g_psi        :      0.06s CPU      0.04s WALL (     434 calls)

     Called by h_psi:
     h_psi:calbec :    115.66s CPU    258.48s WALL (     546 calls)
     vloc_psi     :    154.92s CPU    427.54s WALL (     546 calls)
     add_vuspsi   :     14.45s CPU     36.88s WALL (     546 calls)

     General routines
     calbec       :    138.82s CPU    306.42s WALL (     644 calls)
     fft          :      1.65s CPU      4.08s WALL (      88 calls)
     ffts         :      0.08s CPU      0.11s WALL (       7 calls)
     fftw         :    177.19s CPU    491.38s WALL (   12616 calls)

     Parallel routines

     PWSCF        :   9m35.38s CPU  23m18.68s WALL


   This run was terminated on:  15:22:52  31Jan2024            

=------------------------------------------------------------------------------=
   JOB DONE.
=------------------------------------------------------------------------------=
