### Running on host: handarmsi

     Program PWSCF v.7.2 starts on 19Jun2024 at 19:55:48 

     This program is part of the open-source Quantum ESPRESSO suite
     for quantum simulation of materials; please cite
         "P. Giannozzi et al., J. Phys.:Condens. Matter 21 395502 (2009);
         "P. Giannozzi et al., J. Phys.:Condens. Matter 29 465901 (2017);
         "P. Giannozzi et al., J. Chem. Phys. 152 154105 (2020);
          URL http://www.quantum-espresso.org", 
     in publications or presentations arising from this work. More details at
     http://www.quantum-espresso.org/quote

     Parallel version (MPI), running on     1 processors

     MPI processes distributed on     1 nodes
     5476 MiB available memory on the printing compute node when the environment starts

     Reading input from sn_scf_ecutwfc-80.in

     Current dimensions of program PWSCF are:
     Max number of different atomic species (ntypx) = 10
     Max number of k-points (npk) =  40000
     Max angular momentum in pseudopotentials (lmaxx) =  4

     Subspace diagonalization in iterative solution of the eigenvalue problem:
     a serial algorithm will be used


     G-vector sticks info
     --------------------
     sticks:   dense  smooth     PW     G-vecs:    dense   smooth      PW
     Sum        1735    1735    475               247709   247709   36035

     Using Slab Decomposition



     bravais-lattice index     =            4
     lattice parameter (alat)  =       8.8439  a.u.
     unit-cell volume          =    2560.0529 (a.u.)^3
     number of atoms/cell      =            2
     number of atomic types    =            1
     number of electrons       =        28.00
     number of Kohn-Sham states=           18
     kinetic-energy cutoff     =      80.0000  Ry
     charge density cutoff     =     320.0000  Ry
     scf convergence threshold =      1.0E-06
     mixing beta               =       0.7000
     number of iterations used =            8  plain     mixing
     Exchange-correlation= SLA  PW   PBE  PBE
                           (   1   4   3   4   0   0   0)

     celldm(1)=   8.843918  celldm(2)=   0.000000  celldm(3)=   4.273504
     celldm(4)=   0.000000  celldm(5)=   0.000000  celldm(6)=   0.000000

     crystal axes: (cart. coord. in units of alat)
               a(1) = (   1.000000   0.000000   0.000000 )  
               a(2) = (  -0.500000   0.866025   0.000000 )  
               a(3) = (   0.000000   0.000000   4.273504 )  

     reciprocal axes: (cart. coord. in units 2 pi/alat)
               b(1) = (  1.000000  0.577350 -0.000000 )  
               b(2) = (  0.000000  1.154701  0.000000 )  
               b(3) = (  0.000000 -0.000000  0.234000 )  


     PseudoPot. # 1 for Sn read from file:
     ../pseudo/Sn_pbe_v1.uspp.F.UPF
     MD5 check sum: 4cf58ce39ec5d5d420df3dd08604eb00
     Pseudo is Ultrasoft + core correction, Zval = 14.0
     Generated by new atomic code, or converted to UPF format
     Using radial grid of  891 points,  6 beta functions with: 
                l(1) =   0
                l(2) =   0
                l(3) =   1
                l(4) =   1
                l(5) =   2
                l(6) =   2
     Q(r) pseudized with  6 coefficients,  rinner =    1.200   1.200   1.200
                                                       1.200   1.200

     atomic species   valence    mass     pseudopotential
        Sn            14.00   118.71000     Sn( 1.00)

     24 Sym. Ops., with inversion, found



   Cartesian axes

     site n.     atom                  positions (alat units)
         1           Sn  tau(   1) = (   0.0000000   0.5773503   2.1367521  )
         2           Sn  tau(   2) = (   0.5000000   0.2886751   2.1367521  )

     number of k points=    61  Methfessel-Paxton smearing, width (Ry)=  0.0200
                       cart. coord. in units 2pi/alat
        k(    1) = (   0.0000000   0.0000000   0.0000000), wk =   0.0034722
        k(    2) = (   0.0000000   0.0481125   0.0000000), wk =   0.0208333
        k(    3) = (   0.0000000   0.0962250   0.0000000), wk =   0.0208333
        k(    4) = (   0.0000000   0.1443376   0.0000000), wk =   0.0208333
        k(    5) = (   0.0000000   0.1924501   0.0000000), wk =   0.0208333
        k(    6) = (   0.0000000   0.2405626   0.0000000), wk =   0.0208333
        k(    7) = (   0.0000000   0.2886751   0.0000000), wk =   0.0208333
        k(    8) = (   0.0000000   0.3367877   0.0000000), wk =   0.0208333
        k(    9) = (   0.0000000   0.3849002   0.0000000), wk =   0.0208333
        k(   10) = (   0.0000000   0.4330127   0.0000000), wk =   0.0208333
        k(   11) = (   0.0000000   0.4811252   0.0000000), wk =   0.0208333
        k(   12) = (   0.0000000   0.5292377   0.0000000), wk =   0.0208333
        k(   13) = (   0.0000000  -0.5773503   0.0000000), wk =   0.0104167
        k(   14) = (   0.0416667   0.0721688   0.0000000), wk =   0.0208333
        k(   15) = (   0.0416667   0.1202813   0.0000000), wk =   0.0416667
        k(   16) = (   0.0416667   0.1683938   0.0000000), wk =   0.0416667
        k(   17) = (   0.0416667   0.2165064   0.0000000), wk =   0.0416667
        k(   18) = (   0.0416667   0.2646189   0.0000000), wk =   0.0416667
        k(   19) = (   0.0416667   0.3127314   0.0000000), wk =   0.0416667
        k(   20) = (   0.0416667   0.3608439   0.0000000), wk =   0.0416667
        k(   21) = (   0.0416667   0.4089564   0.0000000), wk =   0.0416667
        k(   22) = (   0.0416667   0.4570690   0.0000000), wk =   0.0416667
        k(   23) = (   0.0416667   0.5051815   0.0000000), wk =   0.0416667
        k(   24) = (   0.0416667   0.5532940   0.0000000), wk =   0.0416667
        k(   25) = (   0.0833333   0.1443376   0.0000000), wk =   0.0208333
        k(   26) = (   0.0833333   0.1924501   0.0000000), wk =   0.0416667
        k(   27) = (   0.0833333   0.2405626   0.0000000), wk =   0.0416667
        k(   28) = (   0.0833333   0.2886751   0.0000000), wk =   0.0416667
        k(   29) = (   0.0833333   0.3367877   0.0000000), wk =   0.0416667
        k(   30) = (   0.0833333   0.3849002   0.0000000), wk =   0.0416667
        k(   31) = (   0.0833333   0.4330127   0.0000000), wk =   0.0416667
        k(   32) = (   0.0833333   0.4811252   0.0000000), wk =   0.0416667
        k(   33) = (   0.0833333   0.5292377   0.0000000), wk =   0.0416667
        k(   34) = (   0.0833333   0.5773503   0.0000000), wk =   0.0208333
        k(   35) = (   0.1250000   0.2165064   0.0000000), wk =   0.0208333
        k(   36) = (   0.1250000   0.2646189   0.0000000), wk =   0.0416667
        k(   37) = (   0.1250000   0.3127314   0.0000000), wk =   0.0416667
        k(   38) = (   0.1250000   0.3608439   0.0000000), wk =   0.0416667
        k(   39) = (   0.1250000   0.4089564   0.0000000), wk =   0.0416667
        k(   40) = (   0.1250000   0.4570690   0.0000000), wk =   0.0416667
        k(   41) = (   0.1250000   0.5051815   0.0000000), wk =   0.0416667
        k(   42) = (   0.1250000   0.5532940   0.0000000), wk =   0.0416667
        k(   43) = (   0.1666667   0.2886751   0.0000000), wk =   0.0208333
        k(   44) = (   0.1666667   0.3367877   0.0000000), wk =   0.0416667
        k(   45) = (   0.1666667   0.3849002   0.0000000), wk =   0.0416667
        k(   46) = (   0.1666667   0.4330127   0.0000000), wk =   0.0416667
        k(   47) = (   0.1666667   0.4811252   0.0000000), wk =   0.0416667
        k(   48) = (   0.1666667   0.5292377   0.0000000), wk =   0.0416667
        k(   49) = (   0.1666667   0.5773503   0.0000000), wk =   0.0208333
        k(   50) = (   0.2083333   0.3608439   0.0000000), wk =   0.0208333
        k(   51) = (   0.2083333   0.4089564   0.0000000), wk =   0.0416667
        k(   52) = (   0.2083333   0.4570690   0.0000000), wk =   0.0416667
        k(   53) = (   0.2083333   0.5051815   0.0000000), wk =   0.0416667
        k(   54) = (   0.2083333   0.5532940   0.0000000), wk =   0.0416667
        k(   55) = (   0.2500000   0.4330127   0.0000000), wk =   0.0208333
        k(   56) = (   0.2500000   0.4811252   0.0000000), wk =   0.0416667
        k(   57) = (   0.2500000   0.5292377   0.0000000), wk =   0.0416667
        k(   58) = (   0.2500000   0.5773503   0.0000000), wk =   0.0208333
        k(   59) = (   0.2916667   0.5051815   0.0000000), wk =   0.0208333
        k(   60) = (   0.2916667   0.5532940   0.0000000), wk =   0.0416667
        k(   61) = (   0.3333333   0.5773503   0.0000000), wk =   0.0069444

     Dense  grid:   247709 G-vectors     FFT dimensions: (  54,  54, 216)

     Estimated max dynamical RAM per process >       1.37 GB

     Initial potential from superposition of free atoms

     starting charge      25.9999, renormalised to      28.0000

     negative rho (up, down):  2.465E-03 0.000E+00
     Starting wfcs are   18 randomized atomic wfcs

     total cpu time spent up to now is       41.3 secs

     Self-consistent Calculation

     iteration #  1     ecut=    80.00 Ry     beta= 0.70
     Davidson diagonalization with overlap
     ethr =  1.00E-02,  avg # of iterations =  7.7

     negative rho (up, down):  1.160E-03 0.000E+00

     total cpu time spent up to now is      279.0 secs

     total energy              =    -325.44080161 Ry
     estimated scf accuracy    <       2.48200202 Ry

     iteration #  2     ecut=    80.00 Ry     beta= 0.70
     Davidson diagonalization with overlap
     ethr =  8.86E-03,  avg # of iterations =  2.1

     negative rho (up, down):  1.536E-03 0.000E+00

     total cpu time spent up to now is      425.6 secs

     total energy              =    -326.33548907 Ry
     estimated scf accuracy    <       0.36260016 Ry

     iteration #  3     ecut=    80.00 Ry     beta= 0.70
     Davidson diagonalization with overlap
     ethr =  1.30E-03,  avg # of iterations =  2.3

     negative rho (up, down):  1.895E-03 0.000E+00

     total cpu time spent up to now is      577.6 secs

     total energy              =    -326.39166657 Ry
     estimated scf accuracy    <       0.00525558 Ry

     iteration #  4     ecut=    80.00 Ry     beta= 0.70
     Davidson diagonalization with overlap
     ethr =  1.88E-05,  avg # of iterations =  9.0

     negative rho (up, down):  1.913E-03 0.000E+00

     total cpu time spent up to now is      809.6 secs

     total energy              =    -326.39354302 Ry
     estimated scf accuracy    <       0.00068721 Ry

     iteration #  5     ecut=    80.00 Ry     beta= 0.70
     Davidson diagonalization with overlap
     ethr =  2.45E-06,  avg # of iterations =  4.7

     negative rho (up, down):  1.911E-03 0.000E+00

     total cpu time spent up to now is      959.9 secs

     total energy              =    -326.39368028 Ry
     estimated scf accuracy    <       0.00000134 Ry

     iteration #  6     ecut=    80.00 Ry     beta= 0.70
     Davidson diagonalization with overlap
     ethr =  4.78E-09,  avg # of iterations =  4.0

     negative rho (up, down):  1.912E-03 0.000E+00

     total cpu time spent up to now is     1111.4 secs

     total energy              =    -326.39368153 Ry
     estimated scf accuracy    <       0.00000126 Ry

     iteration #  7     ecut=    80.00 Ry     beta= 0.70
     Davidson diagonalization with overlap
     ethr =  4.48E-09,  avg # of iterations =  2.0

     negative rho (up, down):  1.913E-03 0.000E+00

     total cpu time spent up to now is     1219.4 secs

     End of self-consistent calculation

          k = 0.0000 0.0000 0.0000 ( 31055 PWs)   bands (ev):

   -24.1157 -24.0992 -24.0992 -23.9983 -23.9983 -23.8359 -23.8359 -23.7662
   -23.7662 -23.7079 -12.2154  -4.2978  -3.6844  -3.3504  -3.3504   0.6704
     0.6704   0.9388

          k = 0.0000 0.0481 0.0000 ( 31029 PWs)   bands (ev):

   -24.1167 -24.1038 -24.1024 -23.9987 -23.9976 -23.8316 -23.8308 -23.7670
   -23.7659 -23.7077 -12.2006  -4.2824  -4.1284  -3.3841  -2.9248   0.6507
     0.7341   0.9625

          k = 0.0000 0.0962 0.0000 ( 30985 PWs)   bands (ev):

   -24.1233 -24.1164 -24.1070 -23.9998 -23.9956 -23.8201 -23.8169 -23.7694
   -23.7647 -23.7071 -12.1561  -4.7078  -4.2364  -3.4783  -2.4113   0.6246
     0.9181   1.0243

          k = 0.0000 0.1443 0.0000 ( 30980 PWs)   bands (ev):

   -24.1389 -24.1344 -24.1075 -24.0016 -23.9923 -23.8042 -23.7968 -23.7732
   -23.7630 -23.7056 -12.0823  -5.2886  -4.1601  -3.6161  -1.9760   0.6609
     1.1161   1.2054

          k = 0.0000 0.1925 0.0000 ( 30974 PWs)   bands (ev):

   -24.1588 -24.1550 -24.1060 -24.0038 -23.9878 -23.7874 -23.7783 -23.7734
   -23.7607 -23.7022 -11.9794  -5.8585  -4.0544  -3.7783  -1.6753   0.8291
     1.2419   1.4105

          k = 0.0000 0.2406 0.0000 ( 30978 PWs)   bands (ev):

   -24.1799 -24.1762 -24.1037 -24.0064 -23.9822 -23.7845 -23.7730 -23.7582
   -23.7490 -23.6958 -11.8482  -6.4109  -3.9482  -3.9203  -1.5295   1.0177
     1.1423   1.4232

          k = 0.0000 0.2887 0.0000 ( 30950 PWs)   bands (ev):

   -24.2005 -24.1965 -24.1011 -24.0091 -23.9759 -23.7917 -23.7631 -23.7555
   -23.7252 -23.6856 -11.6899  -6.9408  -4.1131  -3.7595  -1.5019   0.6102
     1.4580   1.7750

          k = 0.0000 0.3368 0.0000 ( 30960 PWs)   bands (ev):

   -24.2193 -24.2149 -24.0984 -24.0118 -23.9690 -23.7993 -23.7576 -23.7528
   -23.7032 -23.6728 -11.5066  -7.4430  -4.2638  -3.5750  -1.5375   0.2028
     1.6963   2.3241

          k = 0.0000 0.3849 0.0000 ( 30936 PWs)   bands (ev):

   -24.2356 -24.2308 -24.0958 -24.0142 -23.9621 -23.8070 -23.7553 -23.7504
   -23.6841 -23.6593 -11.3024  -7.9111  -4.3938  -3.3712  -1.5965  -0.1916
     1.9385   2.7475

          k = 0.0000 0.4330 0.0000 ( 30892 PWs)   bands (ev):

   -24.2489 -24.2436 -24.0935 -24.0163 -23.9555 -23.8142 -23.7546 -23.7484
   -23.6685 -23.6473 -11.0851  -8.3353  -4.4989  -3.1568  -1.6565  -0.5590
     2.2032   3.1401

          k = 0.0000 0.4811 0.0000 ( 30888 PWs)   bands (ev):

   -24.2586 -24.2530 -24.0917 -24.0178 -23.9499 -23.8202 -23.7546 -23.7468
   -23.6569 -23.6380 -10.8716  -8.6977  -4.5759  -2.9487  -1.7054  -0.8788
     2.4926   3.2272

          k = 0.0000 0.5292 0.0000 ( 30918 PWs)   bands (ev):

   -24.2646 -24.2588 -24.0906 -24.0188 -23.9462 -23.8243 -23.7548 -23.7459
   -23.6499 -23.6321 -10.6979  -8.9611  -4.6228  -2.7815  -1.7367  -1.1138
     2.8007   3.4319

          k = 0.0000-0.5774 0.0000 ( 30974 PWs)   bands (ev):

   -24.2666 -24.2607 -24.0902 -24.0191 -23.9448 -23.8258 -23.7549 -23.7455
   -23.6475 -23.6301 -10.6264  -9.0626  -4.6385  -2.7134  -1.7475  -1.2047
     3.0351   3.2961

          k = 0.0417 0.0722 0.0000 ( 30991 PWs)   bands (ev):

   -24.1214 -24.1089 -24.1089 -23.9994 -23.9962 -23.8238 -23.8213 -23.7686
   -23.7651 -23.7074 -12.1709  -4.5506  -4.2517  -3.4517  -2.5399   0.6196
     0.8663   1.0042

          k = 0.0417 0.1203 0.0000 ( 30967 PWs)   bands (ev):

   -24.1362 -24.1219 -24.1098 -24.0009 -23.9935 -23.8101 -23.8045 -23.7717
   -23.7636 -23.7063 -12.1118  -5.0807  -4.1906  -3.5765  -2.0996   0.6011
     1.0779   1.1231

          k = 0.0417 0.1684 0.0000 ( 30990 PWs)   bands (ev):

   -24.1566 -24.1390 -24.1085 -24.0030 -23.9896 -23.7937 -23.7833 -23.7762
   -23.7616 -23.7037 -12.0234  -5.6305  -4.0995  -3.7364  -1.7314   0.6674
     1.1822   1.4801

          k = 0.0417 0.2165 0.0000 ( 30956 PWs)   bands (ev):

   -24.1789 -24.1579 -24.1063 -24.0055 -23.9845 -23.7820 -23.7779 -23.7605
   -23.7591 -23.6983 -11.9063  -6.1762  -3.9795  -3.9118  -1.4987   0.8798
     1.1881   1.3201

          k = 0.0417 0.2646 0.0000 ( 30950 PWs)   bands (ev):

   -24.2011 -24.1770 -24.1037 -24.0082 -23.9784 -23.7888 -23.7658 -23.7564
   -23.7378 -23.6889 -11.7614  -6.7072  -4.0871  -3.8320  -1.4070   0.7920
     1.2310   1.5126

          k = 0.0417 0.3127 0.0000 ( 30973 PWs)   bands (ev):

   -24.2219 -24.1950 -24.1010 -24.0109 -23.9717 -23.7963 -23.7585 -23.7537
   -23.7167 -23.6757 -11.5903  -7.2164  -4.2513  -3.6590  -1.4095   0.3880
     1.5690   1.8693

          k = 0.0417 0.3608 0.0000 ( 30961 PWs)   bands (ev):

   -24.2403 -24.2111 -24.0982 -24.0135 -23.9646 -23.8041 -23.7551 -23.7511
   -23.6979 -23.6606 -11.3959  -7.6971  -4.3968  -3.4641  -1.4563  -0.0104
     1.8216   2.4121

          k = 0.0417 0.4090 0.0000 ( 30930 PWs)   bands (ev):

   -24.2557 -24.2245 -24.0957 -24.0158 -23.9576 -23.8117 -23.7540 -23.7489
   -23.6821 -23.6463 -11.1837  -8.1412  -4.5181  -3.2536  -1.5155  -0.3904
     2.0776   2.8681

          k = 0.0417 0.4571 0.0000 ( 30898 PWs)   bands (ev):

   -24.2677 -24.2350 -24.0937 -24.0176 -23.9513 -23.8186 -23.7539 -23.7471
   -23.6697 -23.6344 -10.9651  -8.5353  -4.6118  -3.0391  -1.5697  -0.7355
     2.3558   3.0959

          k = 0.0417 0.5052 0.0000 ( 30918 PWs)   bands (ev):

   -24.2758 -24.2421 -24.0922 -24.0189 -23.9465 -23.8238 -23.7541 -23.7458
   -23.6613 -23.6259 -10.7646  -8.8534  -4.6755  -2.8450  -1.6097  -1.0183
     2.6562   3.2927

          k = 0.0417 0.5533 0.0000 ( 30931 PWs)   bands (ev):

   -24.2799 -24.2458 -24.0914 -24.0196 -23.9438 -23.8267 -23.7543 -23.7451
   -23.6570 -23.6216 -10.6326  -9.0445  -4.7076  -2.7188  -1.6307  -1.1893
     2.9598   3.3940

          k = 0.0833 0.1443 0.0000 ( 30961 PWs)   bands (ev):

   -24.1564 -24.1308 -24.1113 -24.0027 -23.9901 -23.7959 -23.7870 -23.7756
   -23.7618 -23.7040 -12.0381  -5.5449  -4.1146  -3.7359  -1.7333   0.5788
     1.1621   1.4727

          k = 0.0833 0.1925 0.0000 ( 30973 PWs)   bands (ev):

   -24.1792 -24.1446 -24.1103 -24.0051 -23.9854 -23.7808 -23.7801 -23.7677
   -23.7595 -23.6991 -11.9354  -6.0415  -4.0093  -3.9263  -1.4131   0.6362
     1.2760   1.2815

          k = 0.0833 0.2406 0.0000 ( 30962 PWs)   bands (ev):

   -24.2026 -24.1604 -24.1081 -24.0078 -23.9797 -23.7873 -23.7662 -23.7568
   -23.7490 -23.6896 -11.8045  -6.5442  -4.1237  -3.8757  -1.2095   0.8408
     0.9143   1.4220

          k = 0.0833 0.2887 0.0000 ( 30960 PWs)   bands (ev):

   -24.2249 -24.1763 -24.1056 -24.0107 -23.9730 -23.7946 -23.7572 -23.7540
   -23.7312 -23.6753 -11.6464  -7.0389  -4.3125  -3.7154  -1.1340   0.5290
     1.2008   1.6057

          k = 0.0833 0.3368 0.0000 ( 30963 PWs)   bands (ev):

   -24.2453 -24.1912 -24.1028 -24.0134 -23.9658 -23.8026 -23.7530 -23.7513
   -23.7144 -23.6584 -11.4633  -7.5157  -4.4828  -3.5313  -1.1422   0.1397
     1.6359   1.8645

          k = 0.0833 0.3849 0.0000 ( 30949 PWs)   bands (ev):

   -24.2628 -24.2042 -24.1002 -24.0160 -23.9583 -23.8107 -23.7516 -23.7488
   -23.6994 -23.6417 -11.2590  -7.9657  -4.6282  -3.3276  -1.1870  -0.2408
     1.9655   2.3290

          k = 0.0833 0.4330 0.0000 ( 30921 PWs)   bands (ev):

   -24.2770 -24.2148 -24.0979 -24.0181 -23.9512 -23.8184 -23.7516 -23.7467
   -23.6870 -23.6272 -11.0411  -8.3778  -4.7445  -3.1127  -1.2393  -0.5986
     2.2441   2.9574

          k = 0.0833 0.4811 0.0000 ( 30923 PWs)   bands (ev):

   -24.2874 -24.2226 -24.0961 -24.0198 -23.9452 -23.8249 -23.7520 -23.7451
   -23.6777 -23.6162 -10.8258  -8.7333  -4.8292  -2.9030  -1.2839  -0.9130
     2.5362   3.0985

          k = 0.0833 0.5292 0.0000 ( 30914 PWs)   bands (ev):

   -24.2937 -24.2274 -24.0950 -24.0208 -23.9410 -23.8293 -23.7525 -23.7441
   -23.6720 -23.6093 -10.6492  -8.9948  -4.8807  -2.7330  -1.3132  -1.1468
     2.8435   3.1525

          k = 0.0833 0.5774 0.0000 ( 30912 PWs)   bands (ev):

   -24.2959 -24.2291 -24.0946 -24.0211 -23.9395 -23.8309 -23.7526 -23.7437
   -23.6701 -23.6070 -10.5757  -9.0966  -4.8979  -2.6631  -1.3233  -1.2382
     3.0742   3.1620

          k = 0.1250 0.2165 0.0000 ( 30975 PWs)   bands (ev):

   -24.2031 -24.1534 -24.1109 -24.0077 -23.9800 -23.7868 -23.7654 -23.7569
   -23.7541 -23.6897 -11.8188  -6.4846  -4.1472  -3.8903  -1.0973   0.6554
     0.9579   1.4007

          k = 0.1250 0.2646 0.0000 ( 30952 PWs)   bands (ev):

   -24.2265 -24.1644 -24.1100 -24.0107 -23.9735 -23.7940 -23.7541 -23.7533
   -23.7425 -23.6747 -11.6745  -6.9387  -4.3695  -3.7438  -0.8672   0.6065
     0.8090   1.5569

          k = 0.1250 0.3127 0.0000 ( 30957 PWs)   bands (ev):

   -24.2483 -24.1759 -24.1082 -24.0136 -23.9661 -23.8020 -23.7512 -23.7482
   -23.7290 -23.6565 -11.5039  -7.3901  -4.5753  -3.5718  -0.7644   0.2412
     1.1365   1.7450

          k = 0.1250 0.3608 0.0000 ( 30928 PWs)   bands (ev):

   -24.2677 -24.1868 -24.1061 -24.0165 -23.9582 -23.8106 -23.7484 -23.7472
   -23.7153 -23.6380 -11.3098  -7.8280  -4.7548  -3.3777  -0.7548  -0.1257
     1.5962   1.9701

          k = 0.1250 0.4090 0.0000 ( 30927 PWs)   bands (ev):

   -24.2839 -24.1963 -24.1039 -24.0189 -23.9503 -23.8191 -23.7476 -23.7460
   -23.7033 -23.6214 -11.0970  -8.2415  -4.9024  -3.1670  -0.7861  -0.4819
     2.0886   2.2721

          k = 0.1250 0.4571 0.0000 ( 30929 PWs)   bands (ev):

   -24.2964 -24.2039 -24.1021 -24.0209 -23.9430 -23.8268 -23.7485 -23.7441
   -23.6937 -23.6080 -10.8762  -8.6162  -5.0151  -2.9506  -0.8262  -0.8116
     2.4363   2.7779

          k = 0.1250 0.5052 0.0000 ( 30924 PWs)   bands (ev):

   -24.3050 -24.2091 -24.1007 -24.0223 -23.9372 -23.8330 -23.7493 -23.7427
   -23.6872 -23.5987 -10.6707  -8.9257  -5.0909  -2.7516  -1.0880  -0.8589
     2.7434   2.8974

          k = 0.1250 0.5533 0.0000 ( 30901 PWs)   bands (ev):

   -24.3093 -24.2118 -24.0999 -24.0231 -23.9339 -23.8365 -23.7498 -23.7420
   -23.6838 -23.5939 -10.5324  -9.1164  -5.1291  -2.6194  -1.2595  -0.8769
     2.8826   3.0393

          k = 0.1667 0.2887 0.0000 ( 30971 PWs)   bands (ev):

   -24.2494 -24.1697 -24.1110 -24.0137 -23.9662 -23.8019 -23.7511 -23.7403
   -23.7403 -23.6558 -11.5175  -7.3446  -4.6136  -3.5854  -0.5562   0.2775
     0.8717   1.7238

          k = 0.1667 0.3368 0.0000 ( 30955 PWs)   bands (ev):

   -24.2702 -24.1760 -24.1109 -24.0168 -23.9580 -23.8106 -23.7481 -23.7406
   -23.7279 -23.6360 -11.3353  -7.7507  -4.8355  -3.4029  -0.3644  -0.0621
     1.1118   1.9220

          k = 0.1667 0.3849 0.0000 ( 30938 PWs)   bands (ev):

   -24.2881 -24.1822 -24.1101 -24.0196 -23.9494 -23.8198 -23.7454 -23.7419
   -23.7169 -23.6177 -11.1313  -8.1467  -5.0240  -3.2002  -0.4020  -0.3004
     1.5312   2.1505

          k = 0.1667 0.4330 0.0000 ( 30925 PWs)   bands (ev):

   -24.3026 -24.1879 -24.1090 -24.0220 -23.9409 -23.8288 -23.7435 -23.7431
   -23.7078 -23.6022 -10.9118  -8.5209  -5.1736  -2.9842  -0.7301  -0.3029
     2.0576   2.4082

          k = 0.1667 0.4811 0.0000 ( 30899 PWs)   bands (ev):

   -24.3133 -24.1922 -24.1079 -24.0238 -23.9332 -23.8368 -23.7449 -23.7414
   -23.7010 -23.5906 -10.6912  -8.8547  -5.2816  -2.7695  -1.0279  -0.3246
     2.6124   2.6851

          k = 0.1667 0.5292 0.0000 ( 30912 PWs)   bands (ev):

   -24.3198 -24.1950 -24.1071 -24.0249 -23.9277 -23.8425 -23.7459 -23.7403
   -23.6968 -23.5834 -10.5042  -9.1108  -5.3468  -2.5896  -1.2588  -0.3435
     2.6378   2.9665

          k = 0.1667 0.5774 0.0000 ( 30892 PWs)   bands (ev):

   -24.3220 -24.1960 -24.1069 -24.0253 -23.9257 -23.8446 -23.7462 -23.7400
   -23.6954 -23.5810 -10.4233  -9.2149  -5.3686  -2.5126  -1.3530  -0.3506
     2.6204   3.1465

          k = 0.2083 0.3608 0.0000 ( 30923 PWs)   bands (ev):

   -24.2895 -24.1766 -24.1130 -24.0199 -23.9490 -23.8201 -23.7452 -23.7375
   -23.7241 -23.6164 -11.1428  -8.1125  -5.0693  -3.2113  -0.3733  -0.0241
     1.2111   2.1310

          k = 0.2083 0.4090 0.0000 ( 30927 PWs)   bands (ev):

   -24.3058 -24.1777 -24.1144 -24.0226 -23.9396 -23.8300 -23.7426 -23.7381
   -23.7179 -23.5993 -10.9302  -8.4667  -5.2639  -3.0015  -0.6841   0.1646
     1.5166   2.3690

          k = 0.2083 0.4571 0.0000 ( 30893 PWs)   bands (ev):

   -24.3184 -24.1790 -24.1150 -24.0248 -23.9303 -23.8396 -23.7405 -23.7396
   -23.7123 -23.5856 -10.7056  -8.8013  -5.4129  -2.7820  -0.9828   0.2243
     1.9922   2.5460

          k = 0.2083 0.5052 0.0000 ( 30899 PWs)   bands (ev):

   -24.3270 -24.1801 -24.1152 -24.0264 -23.9223 -23.8479 -23.7409 -23.7390
   -23.7082 -23.5762 -10.4888  -9.0934  -5.5132  -2.5723  -1.2470   0.2322
     2.4594   2.5283

          k = 0.2083 0.5533 0.0000 ( 30907 PWs)   bands (ev):

   -24.3313 -24.1808 -24.1153 -24.0272 -23.9173 -23.8529 -23.7417 -23.7382
   -23.7060 -23.5713 -10.3327  -9.2877  -5.5636  -2.4231  -1.4240   0.2292
     2.4132   2.9425

          k = 0.2500 0.4330 0.0000 ( 30919 PWs)   bands (ev):

   -24.3201 -24.1736 -24.1184 -24.0252 -23.9292 -23.8407 -23.7402 -23.7364
   -23.7176 -23.5839 -10.7108  -8.7813  -5.4596  -2.7865  -0.9661   0.5479
     1.6361   2.4976

          k = 0.2500 0.4811 0.0000 ( 30886 PWs)   bands (ev):

   -24.3306 -24.1702 -24.1217 -24.0272 -23.9189 -23.8511 -23.7383 -23.7363
   -23.7162 -23.5724 -10.4824  -9.0795  -5.6031  -2.5647  -1.2369   0.7502
     1.9673   2.3656

          k = 0.2500 0.5292 0.0000 ( 30876 PWs)   bands (ev):

   -24.3370 -24.1679 -24.1239 -24.0284 -23.9104 -23.8598 -23.7371 -23.7366
   -23.7150 -23.5653 -10.2721  -9.3325  -5.6903  -2.3624  -1.4692   0.8160
     2.2815   2.4048

          k = 0.2500 0.5774 0.0000 ( 30880 PWs)   bands (ev):

   -24.3392 -24.1671 -24.1247 -24.0288 -23.9067 -23.8636 -23.7369 -23.7367
   -23.7145 -23.5629 -10.1684  -9.4506  -5.7196  -2.2637  -1.5780   0.8295
     2.2530   2.6455

          k = 0.2917 0.5052 0.0000 ( 30881 PWs)   bands (ev):

   -24.3390 -24.1620 -24.1284 -24.0288 -23.9075 -23.8627 -23.7367 -23.7336
   -23.7194 -23.5633 -10.2506  -9.3477  -5.7343  -2.3408  -1.4848   1.1822
     2.0391   2.2363

          k = 0.2917 0.5533 0.0000 ( 30864 PWs)   bands (ev):

   -24.3432 -24.1559 -24.1337 -24.0297 -23.8979 -23.8724 -23.7359 -23.7320
   -23.7212 -23.5587 -10.0446  -9.5719  -5.8011  -2.1436  -1.6939   1.3897
     2.1699   2.2197

          k = 0.3333 0.5774 0.0000 ( 30870 PWs)   bands (ev):

   -24.3453 -24.1444 -24.1444 -24.0301 -23.8852 -23.8852 -23.7355 -23.7269
   -23.7269 -23.5564  -9.8101  -9.8101  -5.8387  -1.9196  -1.9196   1.8857
     1.8858   2.1319

     the Fermi energy is    -2.2746 ev

!    total energy              =    -326.39368175 Ry
     estimated scf accuracy    <       0.00000001 Ry
     smearing contrib. (-TS)   =       0.00026204 Ry
     internal energy E=F+TS    =    -326.39394379 Ry

     The total energy is F=E-TS. E is the sum of the following terms:
     one-electron contribution =    -882.88562498 Ry
     hartree contribution      =     448.58737073 Ry
     xc contribution           =     -95.07399331 Ry
     ewald contribution        =     202.97830377 Ry

     convergence has been achieved in   7 iterations

     Writing all to output data dir ../tmp/stanene.save/

     init_run     :     89.09s CPU     41.25s WALL (       1 calls)
     electrons    :   2713.17s CPU   1178.06s WALL (       1 calls)

     Called by init_run:
     wfcinit      :     80.57s CPU     36.57s WALL (       1 calls)
     potinit      :      0.21s CPU      0.25s WALL (       1 calls)
     hinit0       :      0.58s CPU      0.59s WALL (       1 calls)

     Called by electrons:
     c_bands      :   2265.73s CPU    975.70s WALL (       7 calls)
     sum_band     :    375.44s CPU    165.74s WALL (       7 calls)
     v_of_rho     :      1.40s CPU      1.46s WALL (       8 calls)
     newd         :     77.91s CPU     38.69s WALL (       8 calls)
     mix_rho      :      0.18s CPU      0.20s WALL (       7 calls)

     Called by c_bands:
     init_us_2    :     31.38s CPU      9.75s WALL (     915 calls)
     init_us_2:cp :     31.37s CPU      9.75s WALL (     915 calls)
     cegterg      :   2187.69s CPU    950.92s WALL (     427 calls)

     Called by *egterg:
     cdiaghg      :     11.55s CPU      4.26s WALL (    2363 calls)
     h_psi        :   1689.99s CPU    802.24s WALL (    2424 calls)
     s_psi        :     58.13s CPU     15.06s WALL (    2424 calls)
     g_psi        :      7.55s CPU      2.35s WALL (    1936 calls)

     Called by h_psi:
     h_psi:calbec :   1201.23s CPU    572.60s WALL (    2424 calls)
     vloc_psi     :    432.16s CPU    213.88s WALL (    2424 calls)
     add_vuspsi   :     50.27s CPU     13.46s WALL (    2424 calls)

     General routines
     calbec       :   1449.72s CPU    691.05s WALL (    2851 calls)
     fft          :      0.77s CPU      0.78s WALL (      88 calls)
     ffts         :      0.29s CPU      0.07s WALL (       7 calls)
     fftw         :    432.77s CPU    203.26s WALL (   57900 calls)

     Parallel routines

     PWSCF        :  46m42.70s CPU  20m20.00s WALL


   This run was terminated on:  20:16: 8  19Jun2024            

=------------------------------------------------------------------------------=
   JOB DONE.
=------------------------------------------------------------------------------=
