### Running on host: handarmsi

     Program PWSCF v.7.2 starts on 19Jun2024 at 19:26:44 

     This program is part of the open-source Quantum ESPRESSO suite
     for quantum simulation of materials; please cite
         "P. Giannozzi et al., J. Phys.:Condens. Matter 21 395502 (2009);
         "P. Giannozzi et al., J. Phys.:Condens. Matter 29 465901 (2017);
         "P. Giannozzi et al., J. Chem. Phys. 152 154105 (2020);
          URL http://www.quantum-espresso.org", 
     in publications or presentations arising from this work. More details at
     http://www.quantum-espresso.org/quote

     Parallel version (MPI), running on     1 processors

     MPI processes distributed on     1 nodes
     5653 MiB available memory on the printing compute node when the environment starts

     Reading input from sn_scf_ecutwfc-60.in

     Current dimensions of program PWSCF are:
     Max number of different atomic species (ntypx) = 10
     Max number of k-points (npk) =  40000
     Max angular momentum in pseudopotentials (lmaxx) =  4

     Subspace diagonalization in iterative solution of the eigenvalue problem:
     a serial algorithm will be used


     G-vector sticks info
     --------------------
     sticks:   dense  smooth     PW     G-vecs:    dense   smooth      PW
     Sum        1285    1285    367               160699   160699   24069

     Using Slab Decomposition



     bravais-lattice index     =            4
     lattice parameter (alat)  =       8.8439  a.u.
     unit-cell volume          =    2560.0529 (a.u.)^3
     number of atoms/cell      =            2
     number of atomic types    =            1
     number of electrons       =        28.00
     number of Kohn-Sham states=           18
     kinetic-energy cutoff     =      60.0000  Ry
     charge density cutoff     =     240.0000  Ry
     scf convergence threshold =      1.0E-06
     mixing beta               =       0.7000
     number of iterations used =            8  plain     mixing
     Exchange-correlation= SLA  PW   PBE  PBE
                           (   1   4   3   4   0   0   0)

     celldm(1)=   8.843918  celldm(2)=   0.000000  celldm(3)=   4.273504
     celldm(4)=   0.000000  celldm(5)=   0.000000  celldm(6)=   0.000000

     crystal axes: (cart. coord. in units of alat)
               a(1) = (   1.000000   0.000000   0.000000 )  
               a(2) = (  -0.500000   0.866025   0.000000 )  
               a(3) = (   0.000000   0.000000   4.273504 )  

     reciprocal axes: (cart. coord. in units 2 pi/alat)
               b(1) = (  1.000000  0.577350 -0.000000 )  
               b(2) = (  0.000000  1.154701  0.000000 )  
               b(3) = (  0.000000 -0.000000  0.234000 )  


     PseudoPot. # 1 for Sn read from file:
     ../pseudo/Sn_pbe_v1.uspp.F.UPF
     MD5 check sum: 4cf58ce39ec5d5d420df3dd08604eb00
     Pseudo is Ultrasoft + core correction, Zval = 14.0
     Generated by new atomic code, or converted to UPF format
     Using radial grid of  891 points,  6 beta functions with: 
                l(1) =   0
                l(2) =   0
                l(3) =   1
                l(4) =   1
                l(5) =   2
                l(6) =   2
     Q(r) pseudized with  6 coefficients,  rinner =    1.200   1.200   1.200
                                                       1.200   1.200

     atomic species   valence    mass     pseudopotential
        Sn            14.00   118.71000     Sn( 1.00)

     24 Sym. Ops., with inversion, found



   Cartesian axes

     site n.     atom                  positions (alat units)
         1           Sn  tau(   1) = (   0.0000000   0.5773503   2.1367521  )
         2           Sn  tau(   2) = (   0.5000000   0.2886751   2.1367521  )

     number of k points=    61  Methfessel-Paxton smearing, width (Ry)=  0.0200
                       cart. coord. in units 2pi/alat
        k(    1) = (   0.0000000   0.0000000   0.0000000), wk =   0.0034722
        k(    2) = (   0.0000000   0.0481125   0.0000000), wk =   0.0208333
        k(    3) = (   0.0000000   0.0962250   0.0000000), wk =   0.0208333
        k(    4) = (   0.0000000   0.1443376   0.0000000), wk =   0.0208333
        k(    5) = (   0.0000000   0.1924501   0.0000000), wk =   0.0208333
        k(    6) = (   0.0000000   0.2405626   0.0000000), wk =   0.0208333
        k(    7) = (   0.0000000   0.2886751   0.0000000), wk =   0.0208333
        k(    8) = (   0.0000000   0.3367877   0.0000000), wk =   0.0208333
        k(    9) = (   0.0000000   0.3849002   0.0000000), wk =   0.0208333
        k(   10) = (   0.0000000   0.4330127   0.0000000), wk =   0.0208333
        k(   11) = (   0.0000000   0.4811252   0.0000000), wk =   0.0208333
        k(   12) = (   0.0000000   0.5292377   0.0000000), wk =   0.0208333
        k(   13) = (   0.0000000  -0.5773503   0.0000000), wk =   0.0104167
        k(   14) = (   0.0416667   0.0721688   0.0000000), wk =   0.0208333
        k(   15) = (   0.0416667   0.1202813   0.0000000), wk =   0.0416667
        k(   16) = (   0.0416667   0.1683938   0.0000000), wk =   0.0416667
        k(   17) = (   0.0416667   0.2165064   0.0000000), wk =   0.0416667
        k(   18) = (   0.0416667   0.2646189   0.0000000), wk =   0.0416667
        k(   19) = (   0.0416667   0.3127314   0.0000000), wk =   0.0416667
        k(   20) = (   0.0416667   0.3608439   0.0000000), wk =   0.0416667
        k(   21) = (   0.0416667   0.4089564   0.0000000), wk =   0.0416667
        k(   22) = (   0.0416667   0.4570690   0.0000000), wk =   0.0416667
        k(   23) = (   0.0416667   0.5051815   0.0000000), wk =   0.0416667
        k(   24) = (   0.0416667   0.5532940   0.0000000), wk =   0.0416667
        k(   25) = (   0.0833333   0.1443376   0.0000000), wk =   0.0208333
        k(   26) = (   0.0833333   0.1924501   0.0000000), wk =   0.0416667
        k(   27) = (   0.0833333   0.2405626   0.0000000), wk =   0.0416667
        k(   28) = (   0.0833333   0.2886751   0.0000000), wk =   0.0416667
        k(   29) = (   0.0833333   0.3367877   0.0000000), wk =   0.0416667
        k(   30) = (   0.0833333   0.3849002   0.0000000), wk =   0.0416667
        k(   31) = (   0.0833333   0.4330127   0.0000000), wk =   0.0416667
        k(   32) = (   0.0833333   0.4811252   0.0000000), wk =   0.0416667
        k(   33) = (   0.0833333   0.5292377   0.0000000), wk =   0.0416667
        k(   34) = (   0.0833333   0.5773503   0.0000000), wk =   0.0208333
        k(   35) = (   0.1250000   0.2165064   0.0000000), wk =   0.0208333
        k(   36) = (   0.1250000   0.2646189   0.0000000), wk =   0.0416667
        k(   37) = (   0.1250000   0.3127314   0.0000000), wk =   0.0416667
        k(   38) = (   0.1250000   0.3608439   0.0000000), wk =   0.0416667
        k(   39) = (   0.1250000   0.4089564   0.0000000), wk =   0.0416667
        k(   40) = (   0.1250000   0.4570690   0.0000000), wk =   0.0416667
        k(   41) = (   0.1250000   0.5051815   0.0000000), wk =   0.0416667
        k(   42) = (   0.1250000   0.5532940   0.0000000), wk =   0.0416667
        k(   43) = (   0.1666667   0.2886751   0.0000000), wk =   0.0208333
        k(   44) = (   0.1666667   0.3367877   0.0000000), wk =   0.0416667
        k(   45) = (   0.1666667   0.3849002   0.0000000), wk =   0.0416667
        k(   46) = (   0.1666667   0.4330127   0.0000000), wk =   0.0416667
        k(   47) = (   0.1666667   0.4811252   0.0000000), wk =   0.0416667
        k(   48) = (   0.1666667   0.5292377   0.0000000), wk =   0.0416667
        k(   49) = (   0.1666667   0.5773503   0.0000000), wk =   0.0208333
        k(   50) = (   0.2083333   0.3608439   0.0000000), wk =   0.0208333
        k(   51) = (   0.2083333   0.4089564   0.0000000), wk =   0.0416667
        k(   52) = (   0.2083333   0.4570690   0.0000000), wk =   0.0416667
        k(   53) = (   0.2083333   0.5051815   0.0000000), wk =   0.0416667
        k(   54) = (   0.2083333   0.5532940   0.0000000), wk =   0.0416667
        k(   55) = (   0.2500000   0.4330127   0.0000000), wk =   0.0208333
        k(   56) = (   0.2500000   0.4811252   0.0000000), wk =   0.0416667
        k(   57) = (   0.2500000   0.5292377   0.0000000), wk =   0.0416667
        k(   58) = (   0.2500000   0.5773503   0.0000000), wk =   0.0208333
        k(   59) = (   0.2916667   0.5051815   0.0000000), wk =   0.0208333
        k(   60) = (   0.2916667   0.5532940   0.0000000), wk =   0.0416667
        k(   61) = (   0.3333333   0.5773503   0.0000000), wk =   0.0069444

     Dense  grid:   160699 G-vectors     FFT dimensions: (  45,  45, 192)

     Estimated max dynamical RAM per process >     908.93 MB

     Initial potential from superposition of free atoms

     starting charge      25.9999, renormalised to      28.0000

     negative rho (up, down):  5.017E-03 0.000E+00
     Starting wfcs are   18 randomized atomic wfcs

     total cpu time spent up to now is       24.3 secs

     Self-consistent Calculation

     iteration #  1     ecut=    60.00 Ry     beta= 0.70
     Davidson diagonalization with overlap
     ethr =  1.00E-02,  avg # of iterations =  7.5

     negative rho (up, down):  2.554E-03 0.000E+00

     total cpu time spent up to now is      166.1 secs

     total energy              =    -325.43820888 Ry
     estimated scf accuracy    <       2.48450192 Ry

     iteration #  2     ecut=    60.00 Ry     beta= 0.70
     Davidson diagonalization with overlap
     ethr =  8.87E-03,  avg # of iterations =  2.1

     negative rho (up, down):  3.181E-03 0.000E+00

     total cpu time spent up to now is      252.8 secs

     total energy              =    -326.33458890 Ry
     estimated scf accuracy    <       0.36391254 Ry

     iteration #  3     ecut=    60.00 Ry     beta= 0.70
     Davidson diagonalization with overlap
     ethr =  1.30E-03,  avg # of iterations =  2.4

     negative rho (up, down):  3.682E-03 0.000E+00

     total cpu time spent up to now is      343.7 secs

     total energy              =    -326.39095402 Ry
     estimated scf accuracy    <       0.00529368 Ry

     iteration #  4     ecut=    60.00 Ry     beta= 0.70
     Davidson diagonalization with overlap
     c_bands:  1 eigenvalues not converged
     ethr =  1.89E-05,  avg # of iterations =  9.4

     negative rho (up, down):  3.685E-03 0.000E+00

     total cpu time spent up to now is      474.0 secs

     total energy              =    -326.39284799 Ry
     estimated scf accuracy    <       0.00069246 Ry

     iteration #  5     ecut=    60.00 Ry     beta= 0.70
     Davidson diagonalization with overlap
     ethr =  2.47E-06,  avg # of iterations =  4.8

     negative rho (up, down):  3.676E-03 0.000E+00

     total cpu time spent up to now is      572.2 secs

     total energy              =    -326.39298828 Ry
     estimated scf accuracy    <       0.00000107 Ry

     iteration #  6     ecut=    60.00 Ry     beta= 0.70
     Davidson diagonalization with overlap
     ethr =  3.81E-09,  avg # of iterations =  4.0

     negative rho (up, down):  3.678E-03 0.000E+00

     total cpu time spent up to now is      686.2 secs

     total energy              =    -326.39298938 Ry
     estimated scf accuracy    <       0.00000118 Ry

     iteration #  7     ecut=    60.00 Ry     beta= 0.70
     Davidson diagonalization with overlap
     ethr =  3.81E-09,  avg # of iterations =  2.0

     negative rho (up, down):  3.679E-03 0.000E+00

     total cpu time spent up to now is      778.3 secs

     End of self-consistent calculation

          k = 0.0000 0.0000 0.0000 ( 20001 PWs)   bands (ev):

   -24.1194 -24.1038 -24.1038 -24.0041 -24.0041 -23.8405 -23.8405 -23.7721
   -23.7721 -23.7116 -12.2193  -4.3018  -3.6883  -3.3543  -3.3543   0.6669
     0.6669   0.8834

          k = 0.0000 0.0481 0.0000 ( 20007 PWs)   bands (ev):

   -24.1204 -24.1084 -24.1069 -24.0045 -24.0034 -23.8362 -23.8354 -23.7729
   -23.7718 -23.7114 -12.2045  -4.2864  -4.1324  -3.3880  -2.9287   0.6459
     0.7306   0.9083

          k = 0.0000 0.0962 0.0000 ( 19993 PWs)   bands (ev):

   -24.1273 -24.1210 -24.1113 -24.0056 -24.0014 -23.8247 -23.8215 -23.7753
   -23.7706 -23.7108 -12.1601  -4.7117  -4.2404  -3.4822  -2.4152   0.6186
     0.9146   0.9708

          k = 0.0000 0.1443 0.0000 ( 20039 PWs)   bands (ev):

   -24.1431 -24.1390 -24.1116 -24.0074 -23.9981 -23.8087 -23.8014 -23.7791
   -23.7689 -23.7093 -12.0862  -5.2925  -4.1641  -3.6200  -1.9799   0.6541
     1.0633   1.2018

          k = 0.0000 0.1925 0.0000 ( 20061 PWs)   bands (ev):

   -24.1632 -24.1596 -24.1100 -24.0097 -23.9936 -23.7919 -23.7842 -23.7780
   -23.7666 -23.7060 -11.9833  -5.8624  -4.0583  -3.7823  -1.6791   0.8201
     1.1908   1.4070

          k = 0.0000 0.2406 0.0000 ( 20045 PWs)   bands (ev):

   -24.1843 -24.1807 -24.1077 -24.0123 -23.9881 -23.7904 -23.7773 -23.7641
   -23.7536 -23.6997 -11.8521  -6.4149  -3.9521  -3.9242  -1.5333   1.0141
     1.1229   1.3825

          k = 0.0000 0.2887 0.0000 ( 20055 PWs)   bands (ev):

   -24.2049 -24.2011 -24.1050 -24.0150 -23.9817 -23.7976 -23.7672 -23.7614
   -23.7298 -23.6897 -11.6938  -6.9448  -4.1170  -3.7634  -1.5056   0.6065
     1.4121   1.7605

          k = 0.0000 0.3368 0.0000 ( 20085 PWs)   bands (ev):

   -24.2237 -24.2195 -24.1023 -24.0176 -23.9749 -23.8052 -23.7617 -23.7587
   -23.7079 -23.6769 -11.5105  -7.4469  -4.2676  -3.5788  -1.5412   0.1991
     1.6437   2.3120

          k = 0.0000 0.3849 0.0000 ( 20131 PWs)   bands (ev):

   -24.2401 -24.2354 -24.0997 -24.0200 -23.9679 -23.8129 -23.7592 -23.7563
   -23.6887 -23.6636 -11.3063  -7.9150  -4.3977  -3.3750  -1.6002  -0.1955
     1.8850   2.6415

          k = 0.0000 0.4330 0.0000 ( 20143 PWs)   bands (ev):

   -24.2533 -24.2482 -24.0974 -24.0221 -23.9613 -23.8201 -23.7585 -23.7543
   -23.6731 -23.6516 -11.0891  -8.3393  -4.5028  -3.1605  -1.6602  -0.5630
     2.1502   2.8849

          k = 0.0000 0.4811 0.0000 ( 20129 PWs)   bands (ev):

   -24.2631 -24.2576 -24.0957 -24.0237 -23.9558 -23.8261 -23.7584 -23.7527
   -23.6616 -23.6423 -10.8756  -8.7016  -4.5797  -2.9523  -1.7090  -0.8830
     2.4407   3.1376

          k = 0.0000 0.5292 0.0000 ( 20120 PWs)   bands (ev):

   -24.2690 -24.2633 -24.0945 -24.0246 -23.9520 -23.8302 -23.7586 -23.7518
   -23.6545 -23.6365 -10.7019  -8.9650  -4.6266  -2.7850  -1.7404  -1.1181
     2.7513   3.3638

          k = 0.0000-0.5774 0.0000 ( 20096 PWs)   bands (ev):

   -24.2710 -24.2653 -24.0941 -24.0249 -23.9507 -23.8316 -23.7587 -23.7514
   -23.6521 -23.6345 -10.6304  -9.0665  -4.6424  -2.7169  -1.7511  -1.2091
     2.9937   3.2350

          k = 0.0417 0.0722 0.0000 ( 20005 PWs)   bands (ev):

   -24.1253 -24.1135 -24.1132 -24.0053 -24.0021 -23.8284 -23.8259 -23.7745
   -23.7710 -23.7110 -12.1749  -4.5545  -4.2557  -3.4557  -2.5439   0.6141
     0.8627   0.9506

          k = 0.0417 0.1203 0.0000 ( 20013 PWs)   bands (ev):

   -24.1405 -24.1264 -24.1139 -24.0068 -23.9994 -23.8147 -23.8091 -23.7776
   -23.7695 -23.7099 -12.1157  -5.0847  -4.1945  -3.5804  -2.1035   0.5950
     1.0246   1.1194

          k = 0.0417 0.1684 0.0000 ( 20052 PWs)   bands (ev):

   -24.1610 -24.1435 -24.1124 -24.0088 -23.9954 -23.7982 -23.7879 -23.7821
   -23.7675 -23.7074 -12.0273  -5.6345  -4.1035  -3.7403  -1.7352   0.6608
     1.1289   1.4764

          k = 0.0417 0.2165 0.0000 ( 20055 PWs)   bands (ev):

   -24.1834 -24.1624 -24.1102 -24.0113 -23.9903 -23.7879 -23.7823 -23.7650
   -23.7650 -23.7022 -11.9102  -6.1802  -3.9835  -3.9157  -1.5025   0.8713
     1.1845   1.2688

          k = 0.0417 0.2646 0.0000 ( 20075 PWs)   bands (ev):

   -24.2056 -24.1815 -24.1076 -24.0140 -23.9843 -23.7947 -23.7700 -23.7623
   -23.7424 -23.6930 -11.7653  -6.7112  -4.0910  -3.8359  -1.4107   0.7885
     1.2125   1.4713

          k = 0.0417 0.3127 0.0000 ( 20077 PWs)   bands (ev):

   -24.2264 -24.1995 -24.1049 -24.0167 -23.9776 -23.8022 -23.7626 -23.7596
   -23.7212 -23.6798 -11.5942  -7.2204  -4.2552  -3.6629  -1.4132   0.3844
     1.5231   1.8552

          k = 0.0417 0.3608 0.0000 ( 20090 PWs)   bands (ev):

   -24.2448 -24.2156 -24.1021 -24.0193 -23.9705 -23.8100 -23.7591 -23.7570
   -23.7024 -23.6649 -11.3998  -7.7011  -4.4006  -3.4680  -1.4600  -0.0142
     1.7694   2.5345

          k = 0.0417 0.4090 0.0000 ( 20107 PWs)   bands (ev):

   -24.2602 -24.2290 -24.0996 -24.0216 -23.9635 -23.8176 -23.7579 -23.7548
   -23.6866 -23.6507 -11.1876  -8.1451  -4.5220  -3.2574  -1.5192  -0.3943
     2.0246   2.7645

          k = 0.0417 0.4571 0.0000 ( 20118 PWs)   bands (ev):

   -24.2722 -24.2395 -24.0976 -24.0235 -23.9572 -23.8245 -23.7577 -23.7530
   -23.6743 -23.6388 -10.9690  -8.5392  -4.6156  -3.0428  -1.5734  -0.7395
     2.3033   3.0049

          k = 0.0417 0.5052 0.0000 ( 20132 PWs)   bands (ev):

   -24.2803 -24.2466 -24.0961 -24.0247 -23.9523 -23.8297 -23.7579 -23.7517
   -23.6658 -23.6304 -10.7686  -8.8574  -4.6793  -2.8485  -1.6133  -1.0225
     2.6055   3.2236

          k = 0.0417 0.5533 0.0000 ( 20126 PWs)   bands (ev):

   -24.2845 -24.2503 -24.0954 -24.0254 -23.9497 -23.8326 -23.7581 -23.7510
   -23.6615 -23.6260 -10.6366  -9.0484  -4.7115  -2.7222  -1.6343  -1.1936
     2.9140   3.3466

          k = 0.0833 0.1443 0.0000 ( 20045 PWs)   bands (ev):

   -24.1608 -24.1354 -24.1152 -24.0086 -23.9959 -23.8004 -23.7915 -23.7815
   -23.7677 -23.7078 -12.0420  -5.5489  -4.1186  -3.7398  -1.7372   0.5729
     1.1083   1.4691

          k = 0.0833 0.1925 0.0000 ( 20059 PWs)   bands (ev):

   -24.1837 -24.1492 -24.1141 -24.0109 -23.9913 -23.7867 -23.7846 -23.7722
   -23.7654 -23.7029 -11.9394  -6.0455  -4.0132  -3.9301  -1.4169   0.6303
     1.2222   1.2782

          k = 0.0833 0.2406 0.0000 ( 20083 PWs)   bands (ev):

   -24.2070 -24.1649 -24.1120 -24.0137 -23.9855 -23.7932 -23.7706 -23.7627
   -23.7534 -23.6936 -11.8084  -6.5482  -4.1275  -3.8796  -1.2133   0.8342
     0.9109   1.3691

          k = 0.0833 0.2887 0.0000 ( 20094 PWs)   bands (ev):

   -24.2294 -24.1808 -24.1095 -24.0165 -23.9789 -23.8005 -23.7614 -23.7599
   -23.7356 -23.6795 -11.6503  -7.0429  -4.3163  -3.7193  -1.1377   0.5254
     1.1912   1.5558

          k = 0.0833 0.3368 0.0000 ( 20094 PWs)   bands (ev):

   -24.2498 -24.1956 -24.1067 -24.0193 -23.9716 -23.8085 -23.7572 -23.7570
   -23.7188 -23.6627 -11.4672  -7.5196  -4.4866  -3.5351  -1.1460   0.1361
     1.6075   1.8338

          k = 0.0833 0.3849 0.0000 ( 20088 PWs)   bands (ev):

   -24.2673 -24.2086 -24.1041 -24.0218 -23.9642 -23.8166 -23.7556 -23.7547
   -23.7038 -23.6461 -11.2629  -7.9696  -4.6320  -3.3314  -1.1907  -0.2446
     1.9153   2.3204

          k = 0.0833 0.4330 0.0000 ( 20111 PWs)   bands (ev):

   -24.2815 -24.2193 -24.1018 -24.0240 -23.9571 -23.8243 -23.7555 -23.7526
   -23.6914 -23.6317 -11.0450  -8.3817  -4.7483  -3.1165  -1.2430  -0.6024
     2.1917   2.8736

          k = 0.0833 0.4811 0.0000 ( 20119 PWs)   bands (ev):

   -24.2919 -24.2271 -24.1001 -24.0256 -23.9510 -23.8308 -23.7559 -23.7510
   -23.6822 -23.6207 -10.8298  -8.7372  -4.8331  -2.9066  -1.2876  -0.9170
     2.4847   3.0414

          k = 0.0833 0.5292 0.0000 ( 20109 PWs)   bands (ev):

   -24.2983 -24.2319 -24.0989 -24.0266 -23.9469 -23.8352 -23.7563 -23.7500
   -23.6765 -23.6139 -10.6531  -8.9987  -4.8845  -2.7365  -1.3169  -1.1510
     2.7946   3.1186

          k = 0.0833 0.5774 0.0000 ( 20128 PWs)   bands (ev):

   -24.3004 -24.2335 -24.0985 -24.0270 -23.9454 -23.8368 -23.7564 -23.7496
   -23.6746 -23.6115 -10.5796  -9.1005  -4.9017  -2.6665  -1.3270  -1.2424
     3.0335   3.1345

          k = 0.1250 0.2165 0.0000 ( 20077 PWs)   bands (ev):

   -24.2076 -24.1580 -24.1147 -24.0136 -23.9859 -23.7927 -23.7699 -23.7628
   -23.7584 -23.6937 -11.8228  -6.4885  -4.1511  -3.8942  -1.1011   0.6498
     0.9546   1.3467

          k = 0.1250 0.2646 0.0000 ( 20086 PWs)   bands (ev):

   -24.2310 -24.1689 -24.1139 -24.0165 -23.9793 -23.7999 -23.7600 -23.7577
   -23.7467 -23.6790 -11.6784  -6.9427  -4.3733  -3.7477  -0.8710   0.6031
     0.8034   1.5030

          k = 0.1250 0.3127 0.0000 ( 20092 PWs)   bands (ev):

   -24.2528 -24.1803 -24.1122 -24.0195 -23.9720 -23.8079 -23.7571 -23.7523
   -23.7333 -23.6608 -11.5079  -7.3941  -4.5791  -3.5757  -0.7682   0.2378
     1.1301   1.6925

          k = 0.1250 0.3608 0.0000 ( 20080 PWs)   bands (ev):

   -24.2722 -24.1913 -24.1100 -24.0223 -23.9641 -23.8164 -23.7543 -23.7511
   -23.7196 -23.6424 -11.3137  -7.8319  -4.7586  -3.3815  -0.7585  -0.1292
     1.5867   1.9213

          k = 0.1250 0.4090 0.0000 ( 20114 PWs)   bands (ev):

   -24.2884 -24.2008 -24.1079 -24.0248 -23.9562 -23.8249 -23.7519 -23.7515
   -23.7076 -23.6259 -11.1010  -8.2455  -4.9062  -3.1707  -0.7898  -0.4856
     2.0557   2.2473

          k = 0.1250 0.4571 0.0000 ( 20113 PWs)   bands (ev):

   -24.3010 -24.2083 -24.1060 -24.0268 -23.9489 -23.8327 -23.7524 -23.7500
   -23.6981 -23.6125 -10.8801  -8.6201  -5.0188  -2.9542  -0.8299  -0.8154
     2.3859   2.8549

          k = 0.1250 0.5052 0.0000 ( 20113 PWs)   bands (ev):

   -24.3095 -24.2136 -24.1046 -24.0282 -23.9430 -23.8389 -23.7532 -23.7486
   -23.6915 -23.6032 -10.6747  -8.9296  -5.0947  -2.7552  -1.0919  -0.8627
     2.6929   2.8703

          k = 0.1250 0.5533 0.0000 ( 20114 PWs)   bands (ev):

   -24.3139 -24.2162 -24.1039 -24.0289 -23.9397 -23.8424 -23.7537 -23.7479
   -23.6882 -23.5985 -10.5363  -9.1204  -5.1329  -2.6228  -1.2636  -0.8806
     2.8609   2.9948

          k = 0.1667 0.2887 0.0000 ( 20089 PWs)   bands (ev):

   -24.2539 -24.1742 -24.1149 -24.0196 -23.9720 -23.8078 -23.7570 -23.7447
   -23.7443 -23.6602 -11.5215  -7.3486  -4.6175  -3.5893  -0.5600   0.2741
     0.8665   1.6703

          k = 0.1667 0.3368 0.0000 ( 20084 PWs)   bands (ev):

   -24.2747 -24.1804 -24.1149 -24.0226 -23.9639 -23.8165 -23.7541 -23.7446
   -23.7323 -23.6405 -11.3393  -7.7547  -4.8393  -3.4067  -0.3681  -0.0655
     1.1065   1.8691

          k = 0.1667 0.3849 0.0000 ( 20093 PWs)   bands (ev):

   -24.2926 -24.1867 -24.1141 -24.0254 -23.9552 -23.8257 -23.7513 -23.7458
   -23.7212 -23.6222 -11.1352  -8.1507  -5.0277  -3.2039  -0.4054  -0.3042
     1.5254   2.0987

          k = 0.1667 0.4330 0.0000 ( 20113 PWs)   bands (ev):

   -24.3072 -24.1923 -24.1130 -24.0278 -23.9467 -23.8347 -23.7491 -23.7474
   -23.7121 -23.6068 -10.9157  -8.5248  -5.1773  -2.9879  -0.7337  -0.3066
     2.0498   2.3594

          k = 0.1667 0.4811 0.0000 ( 20107 PWs)   bands (ev):

   -24.3178 -24.1966 -24.1119 -24.0296 -23.9391 -23.8427 -23.7488 -23.7473
   -23.7053 -23.5952 -10.6952  -8.8587  -5.2854  -2.7731  -1.0316  -0.3283
     2.5836   2.6615

          k = 0.1667 0.5292 0.0000 ( 20106 PWs)   bands (ev):

   -24.3244 -24.1994 -24.1111 -24.0308 -23.9336 -23.8484 -23.7497 -23.7462
   -23.7011 -23.5880 -10.5081  -9.1148  -5.3506  -2.5930  -1.2626  -0.3472
     2.6186   2.9206

          k = 0.1667 0.5774 0.0000 ( 20103 PWs)   bands (ev):

   -24.3265 -24.2003 -24.1109 -24.0311 -23.9315 -23.8505 -23.7501 -23.7459
   -23.6997 -23.5856 -10.4272  -9.2189  -5.3723  -2.5160  -1.3569  -0.3544
     2.6021   3.1146

          k = 0.2083 0.3608 0.0000 ( 20087 PWs)   bands (ev):

   -24.2941 -24.1810 -24.1170 -24.0257 -23.9549 -23.8260 -23.7511 -23.7414
   -23.7284 -23.6209 -11.1467  -8.1164  -5.0730  -3.2151  -0.3767  -0.0278
     1.2060   2.0785

          k = 0.2083 0.4090 0.0000 ( 20099 PWs)   bands (ev):

   -24.3103 -24.1821 -24.1183 -24.0284 -23.9454 -23.8359 -23.7485 -23.7420
   -23.7222 -23.6038 -10.9341  -8.4706  -5.2676  -3.0052  -0.6876   0.1609
     1.5116   2.3174

          k = 0.2083 0.4571 0.0000 ( 20115 PWs)   bands (ev):

   -24.3229 -24.1834 -24.1190 -24.0307 -23.9361 -23.8455 -23.7464 -23.7435
   -23.7165 -23.5902 -10.7096  -8.8052  -5.4166  -2.7856  -0.9863   0.2206
     1.9872   2.5241

          k = 0.2083 0.5052 0.0000 ( 20122 PWs)   bands (ev):

   -24.3315 -24.1845 -24.1193 -24.0322 -23.9281 -23.8538 -23.7449 -23.7449
   -23.7124 -23.5808 -10.4927  -9.0973  -5.5169  -2.5758  -1.2506   0.2284
     2.4412   2.5234

          k = 0.2083 0.5533 0.0000 ( 20133 PWs)   bands (ev):

   -24.3359 -24.1851 -24.1193 -24.0330 -23.9232 -23.8588 -23.7456 -23.7442
   -23.7103 -23.5759 -10.3367  -9.2916  -5.5673  -2.4265  -1.4277   0.2254
     2.3962   2.9343

          k = 0.2500 0.4330 0.0000 ( 20133 PWs)   bands (ev):

   -24.3246 -24.1780 -24.1224 -24.0310 -23.9350 -23.8466 -23.7461 -23.7403
   -23.7218 -23.5885 -10.7147  -8.7853  -5.4633  -2.7902  -0.9695   0.5442
     1.6313   2.4761

          k = 0.2500 0.4811 0.0000 ( 20115 PWs)   bands (ev):

   -24.3352 -24.1745 -24.1257 -24.0330 -23.9248 -23.8570 -23.7442 -23.7402
   -23.7204 -23.5771 -10.4864  -9.0834  -5.6068  -2.5683  -1.2404   0.7465
     1.9627   2.3477

          k = 0.2500 0.5292 0.0000 ( 20109 PWs)   bands (ev):

   -24.3416 -24.1722 -24.1280 -24.0342 -23.9163 -23.8657 -23.7430 -23.7406
   -23.7192 -23.5700 -10.2760  -9.3365  -5.6940  -2.3659  -1.4727   0.8123
     2.2650   2.4004

          k = 0.2500 0.5774 0.0000 ( 20109 PWs)   bands (ev):

   -24.3438 -24.1714 -24.1288 -24.0347 -23.9126 -23.8695 -23.7426 -23.7408
   -23.7187 -23.5676 -10.1724  -9.4545  -5.7233  -2.2671  -1.5816   0.8257
     2.2367   2.6408

          k = 0.2917 0.5052 0.0000 ( 20105 PWs)   bands (ev):

   -24.3435 -24.1663 -24.1325 -24.0347 -23.9134 -23.8686 -23.7427 -23.7376
   -23.7235 -23.5680 -10.2546  -9.3517  -5.7380  -2.3443  -1.4883   1.1785
     2.0349   2.2200

          k = 0.2917 0.5533 0.0000 ( 20115 PWs)   bands (ev):

   -24.3478 -24.1602 -24.1378 -24.0355 -23.9038 -23.8782 -23.7418 -23.7360
   -23.7254 -23.5633 -10.0486  -9.5758  -5.8048  -2.1470  -1.6974   1.3859
     2.1539   2.2158

          k = 0.3333 0.5774 0.0000 ( 20085 PWs)   bands (ev):

   -24.3498 -24.1487 -24.1487 -24.0360 -23.8910 -23.8910 -23.7414 -23.7310
   -23.7310 -23.5610  -9.8141  -9.8141  -5.8424  -1.9230  -1.9230   1.8820
     1.8820   2.1162

     the Fermi energy is    -2.2781 ev

!    total energy              =    -326.39298958 Ry
     estimated scf accuracy    <       0.00000001 Ry
     smearing contrib. (-TS)   =       0.00026198 Ry
     internal energy E=F+TS    =    -326.39325156 Ry

     The total energy is F=E-TS. E is the sum of the following terms:
     one-electron contribution =    -882.87524854 Ry
     hartree contribution      =     448.57721403 Ry
     xc contribution           =     -95.07352079 Ry
     ewald contribution        =     202.97830373 Ry

     convergence has been achieved in   7 iterations

     Writing all to output data dir ../tmp/stanene.save/

     init_run     :     53.63s CPU     24.21s WALL (       1 calls)
     electrons    :   1817.74s CPU    754.09s WALL (       1 calls)

     Called by init_run:
     wfcinit      :     50.94s CPU     22.49s WALL (       1 calls)
     potinit      :      0.15s CPU      0.16s WALL (       1 calls)
     hinit0       :      0.47s CPU      0.48s WALL (       1 calls)

     Called by electrons:
     c_bands      :   1480.35s CPU    605.17s WALL (       7 calls)
     sum_band     :    292.09s CPU    126.34s WALL (       7 calls)
     v_of_rho     :      0.74s CPU      0.77s WALL (       8 calls)
     newd         :     46.42s CPU     22.71s WALL (       8 calls)
     mix_rho      :      0.09s CPU      0.10s WALL (       7 calls)

     Called by c_bands:
     init_us_2    :     17.40s CPU      5.26s WALL (     915 calls)
     init_us_2:cp :     17.38s CPU      5.25s WALL (     915 calls)
     cegterg      :   1435.10s CPU    591.26s WALL (     427 calls)

     Called by *egterg:
     cdiaghg      :      9.91s CPU      3.24s WALL (    2384 calls)
     h_psi        :   1122.54s CPU    492.48s WALL (    2445 calls)
     s_psi        :     37.51s CPU     10.90s WALL (    2445 calls)
     g_psi        :      4.44s CPU      1.44s WALL (    1957 calls)

     Called by h_psi:
     h_psi:calbec :    714.09s CPU    337.10s WALL (    2445 calls)
     vloc_psi     :    370.02s CPU    143.91s WALL (    2445 calls)
     add_vuspsi   :     34.80s CPU     10.13s WALL (    2445 calls)

     General routines
     calbec       :    921.69s CPU    436.57s WALL (    2872 calls)
     fft          :      0.49s CPU      0.50s WALL (      88 calls)
     ffts         :      0.10s CPU      0.03s WALL (       7 calls)
     fftw         :    381.63s CPU    142.32s WALL (   58112 calls)

     Parallel routines

     PWSCF        :  31m11.70s CPU  12m58.76s WALL


   This run was terminated on:  19:39:43  19Jun2024            

=------------------------------------------------------------------------------=
   JOB DONE.
=------------------------------------------------------------------------------=
