### Running on host: handarmsi

     Program PWSCF v.7.2 starts on 19Jun2024 at 19: 8:20 

     This program is part of the open-source Quantum ESPRESSO suite
     for quantum simulation of materials; please cite
         "P. Giannozzi et al., J. Phys.:Condens. Matter 21 395502 (2009);
         "P. Giannozzi et al., J. Phys.:Condens. Matter 29 465901 (2017);
         "P. Giannozzi et al., J. Chem. Phys. 152 154105 (2020);
          URL http://www.quantum-espresso.org", 
     in publications or presentations arising from this work. More details at
     http://www.quantum-espresso.org/quote

     Parallel version (MPI), running on     1 processors

     MPI processes distributed on     1 nodes
     5938 MiB available memory on the printing compute node when the environment starts

     Reading input from sn_scf_ecutwfc-40.in

     Current dimensions of program PWSCF are:
     Max number of different atomic species (ntypx) = 10
     Max number of k-points (npk) =  40000
     Max angular momentum in pseudopotentials (lmaxx) =  4

     Subspace diagonalization in iterative solution of the eigenvalue problem:
     a serial algorithm will be used


     G-vector sticks info
     --------------------
     sticks:   dense  smooth     PW     G-vecs:    dense   smooth      PW
     Sum         859     859    253                87375    87375   13629

     Using Slab Decomposition



     bravais-lattice index     =            4
     lattice parameter (alat)  =       8.8439  a.u.
     unit-cell volume          =    2560.0529 (a.u.)^3
     number of atoms/cell      =            2
     number of atomic types    =            1
     number of electrons       =        28.00
     number of Kohn-Sham states=           18
     kinetic-energy cutoff     =      40.0000  Ry
     charge density cutoff     =     160.0000  Ry
     scf convergence threshold =      1.0E-06
     mixing beta               =       0.7000
     number of iterations used =            8  plain     mixing
     Exchange-correlation= SLA  PW   PBE  PBE
                           (   1   4   3   4   0   0   0)

     celldm(1)=   8.843918  celldm(2)=   0.000000  celldm(3)=   4.273504
     celldm(4)=   0.000000  celldm(5)=   0.000000  celldm(6)=   0.000000

     crystal axes: (cart. coord. in units of alat)
               a(1) = (   1.000000   0.000000   0.000000 )  
               a(2) = (  -0.500000   0.866025   0.000000 )  
               a(3) = (   0.000000   0.000000   4.273504 )  

     reciprocal axes: (cart. coord. in units 2 pi/alat)
               b(1) = (  1.000000  0.577350 -0.000000 )  
               b(2) = (  0.000000  1.154701  0.000000 )  
               b(3) = (  0.000000 -0.000000  0.234000 )  


     PseudoPot. # 1 for Sn read from file:
     ../pseudo/Sn_pbe_v1.uspp.F.UPF
     MD5 check sum: 4cf58ce39ec5d5d420df3dd08604eb00
     Pseudo is Ultrasoft + core correction, Zval = 14.0
     Generated by new atomic code, or converted to UPF format
     Using radial grid of  891 points,  6 beta functions with: 
                l(1) =   0
                l(2) =   0
                l(3) =   1
                l(4) =   1
                l(5) =   2
                l(6) =   2
     Q(r) pseudized with  6 coefficients,  rinner =    1.200   1.200   1.200
                                                       1.200   1.200

     atomic species   valence    mass     pseudopotential
        Sn            14.00   118.71000     Sn( 1.00)

     24 Sym. Ops., with inversion, found



   Cartesian axes

     site n.     atom                  positions (alat units)
         1           Sn  tau(   1) = (   0.0000000   0.5773503   2.1367521  )
         2           Sn  tau(   2) = (   0.5000000   0.2886751   2.1367521  )

     number of k points=    61  Methfessel-Paxton smearing, width (Ry)=  0.0200
                       cart. coord. in units 2pi/alat
        k(    1) = (   0.0000000   0.0000000   0.0000000), wk =   0.0034722
        k(    2) = (   0.0000000   0.0481125   0.0000000), wk =   0.0208333
        k(    3) = (   0.0000000   0.0962250   0.0000000), wk =   0.0208333
        k(    4) = (   0.0000000   0.1443376   0.0000000), wk =   0.0208333
        k(    5) = (   0.0000000   0.1924501   0.0000000), wk =   0.0208333
        k(    6) = (   0.0000000   0.2405626   0.0000000), wk =   0.0208333
        k(    7) = (   0.0000000   0.2886751   0.0000000), wk =   0.0208333
        k(    8) = (   0.0000000   0.3367877   0.0000000), wk =   0.0208333
        k(    9) = (   0.0000000   0.3849002   0.0000000), wk =   0.0208333
        k(   10) = (   0.0000000   0.4330127   0.0000000), wk =   0.0208333
        k(   11) = (   0.0000000   0.4811252   0.0000000), wk =   0.0208333
        k(   12) = (   0.0000000   0.5292377   0.0000000), wk =   0.0208333
        k(   13) = (   0.0000000  -0.5773503   0.0000000), wk =   0.0104167
        k(   14) = (   0.0416667   0.0721688   0.0000000), wk =   0.0208333
        k(   15) = (   0.0416667   0.1202813   0.0000000), wk =   0.0416667
        k(   16) = (   0.0416667   0.1683938   0.0000000), wk =   0.0416667
        k(   17) = (   0.0416667   0.2165064   0.0000000), wk =   0.0416667
        k(   18) = (   0.0416667   0.2646189   0.0000000), wk =   0.0416667
        k(   19) = (   0.0416667   0.3127314   0.0000000), wk =   0.0416667
        k(   20) = (   0.0416667   0.3608439   0.0000000), wk =   0.0416667
        k(   21) = (   0.0416667   0.4089564   0.0000000), wk =   0.0416667
        k(   22) = (   0.0416667   0.4570690   0.0000000), wk =   0.0416667
        k(   23) = (   0.0416667   0.5051815   0.0000000), wk =   0.0416667
        k(   24) = (   0.0416667   0.5532940   0.0000000), wk =   0.0416667
        k(   25) = (   0.0833333   0.1443376   0.0000000), wk =   0.0208333
        k(   26) = (   0.0833333   0.1924501   0.0000000), wk =   0.0416667
        k(   27) = (   0.0833333   0.2405626   0.0000000), wk =   0.0416667
        k(   28) = (   0.0833333   0.2886751   0.0000000), wk =   0.0416667
        k(   29) = (   0.0833333   0.3367877   0.0000000), wk =   0.0416667
        k(   30) = (   0.0833333   0.3849002   0.0000000), wk =   0.0416667
        k(   31) = (   0.0833333   0.4330127   0.0000000), wk =   0.0416667
        k(   32) = (   0.0833333   0.4811252   0.0000000), wk =   0.0416667
        k(   33) = (   0.0833333   0.5292377   0.0000000), wk =   0.0416667
        k(   34) = (   0.0833333   0.5773503   0.0000000), wk =   0.0208333
        k(   35) = (   0.1250000   0.2165064   0.0000000), wk =   0.0208333
        k(   36) = (   0.1250000   0.2646189   0.0000000), wk =   0.0416667
        k(   37) = (   0.1250000   0.3127314   0.0000000), wk =   0.0416667
        k(   38) = (   0.1250000   0.3608439   0.0000000), wk =   0.0416667
        k(   39) = (   0.1250000   0.4089564   0.0000000), wk =   0.0416667
        k(   40) = (   0.1250000   0.4570690   0.0000000), wk =   0.0416667
        k(   41) = (   0.1250000   0.5051815   0.0000000), wk =   0.0416667
        k(   42) = (   0.1250000   0.5532940   0.0000000), wk =   0.0416667
        k(   43) = (   0.1666667   0.2886751   0.0000000), wk =   0.0208333
        k(   44) = (   0.1666667   0.3367877   0.0000000), wk =   0.0416667
        k(   45) = (   0.1666667   0.3849002   0.0000000), wk =   0.0416667
        k(   46) = (   0.1666667   0.4330127   0.0000000), wk =   0.0416667
        k(   47) = (   0.1666667   0.4811252   0.0000000), wk =   0.0416667
        k(   48) = (   0.1666667   0.5292377   0.0000000), wk =   0.0416667
        k(   49) = (   0.1666667   0.5773503   0.0000000), wk =   0.0208333
        k(   50) = (   0.2083333   0.3608439   0.0000000), wk =   0.0208333
        k(   51) = (   0.2083333   0.4089564   0.0000000), wk =   0.0416667
        k(   52) = (   0.2083333   0.4570690   0.0000000), wk =   0.0416667
        k(   53) = (   0.2083333   0.5051815   0.0000000), wk =   0.0416667
        k(   54) = (   0.2083333   0.5532940   0.0000000), wk =   0.0416667
        k(   55) = (   0.2500000   0.4330127   0.0000000), wk =   0.0208333
        k(   56) = (   0.2500000   0.4811252   0.0000000), wk =   0.0416667
        k(   57) = (   0.2500000   0.5292377   0.0000000), wk =   0.0416667
        k(   58) = (   0.2500000   0.5773503   0.0000000), wk =   0.0208333
        k(   59) = (   0.2916667   0.5051815   0.0000000), wk =   0.0208333
        k(   60) = (   0.2916667   0.5532940   0.0000000), wk =   0.0416667
        k(   61) = (   0.3333333   0.5773503   0.0000000), wk =   0.0069444

     Dense  grid:    87375 G-vectors     FFT dimensions: (  36,  36, 160)

     Estimated max dynamical RAM per process >     494.49 MB

     Check: negative core charge=   -0.000001

     Initial potential from superposition of free atoms

     starting charge      25.9999, renormalised to      28.0000

     negative rho (up, down):  1.678E-02 0.000E+00
     Starting wfcs are   18 randomized atomic wfcs

     total cpu time spent up to now is       19.1 secs

     Self-consistent Calculation

     iteration #  1     ecut=    40.00 Ry     beta= 0.70
     Davidson diagonalization with overlap
     ethr =  1.00E-02,  avg # of iterations =  8.0

     negative rho (up, down):  1.122E-02 0.000E+00

     total cpu time spent up to now is      108.4 secs

     total energy              =    -325.42731057 Ry
     estimated scf accuracy    <       2.49760316 Ry

     iteration #  2     ecut=    40.00 Ry     beta= 0.70
     Davidson diagonalization with overlap
     ethr =  8.92E-03,  avg # of iterations =  2.0

     negative rho (up, down):  1.302E-02 0.000E+00

     total cpu time spent up to now is      163.2 secs

     total energy              =    -326.33273379 Ry
     estimated scf accuracy    <       0.37236513 Ry

     iteration #  3     ecut=    40.00 Ry     beta= 0.70
     Davidson diagonalization with overlap
     ethr =  1.33E-03,  avg # of iterations =  2.2

     negative rho (up, down):  1.425E-02 0.000E+00

     total cpu time spent up to now is      219.3 secs

     total energy              =    -326.39073783 Ry
     estimated scf accuracy    <       0.00542248 Ry

     iteration #  4     ecut=    40.00 Ry     beta= 0.70
     Davidson diagonalization with overlap
     ethr =  1.94E-05,  avg # of iterations =  9.9

     negative rho (up, down):  1.419E-02 0.000E+00

     total cpu time spent up to now is      301.4 secs

     total energy              =    -326.39267014 Ry
     estimated scf accuracy    <       0.00068923 Ry

     iteration #  5     ecut=    40.00 Ry     beta= 0.70
     Davidson diagonalization with overlap
     ethr =  2.46E-06,  avg # of iterations =  4.7

     negative rho (up, down):  1.416E-02 0.000E+00

     total cpu time spent up to now is      369.8 secs

     End of self-consistent calculation

          k = 0.0000 0.0000 0.0000 ( 10895 PWs)   bands (ev):

   -24.1392 -24.1247 -24.1247 -24.0275 -24.0275 -23.8612 -23.8612 -23.7956
   -23.7956 -23.7312 -12.2391  -4.3225  -3.7089  -3.3740  -3.3740   0.6509
     0.6509   0.6876

          k = 0.0000 0.0481 0.0000 ( 10919 PWs)   bands (ev):

   -24.1402 -24.1293 -24.1278 -24.0279 -24.0269 -23.8569 -23.8561 -23.7964
   -23.7952 -23.7311 -12.2242  -4.3071  -4.1526  -3.4076  -2.9487   0.6157
     0.7145   0.7260

          k = 0.0000 0.0962 0.0000 ( 10887 PWs)   bands (ev):

   -24.1475 -24.1419 -24.1318 -24.0291 -24.0248 -23.8453 -23.8421 -23.7987
   -23.7941 -23.7305 -12.1798  -4.7319  -4.2611  -3.5017  -2.4351   0.5832
     0.7919   0.8984

          k = 0.0000 0.1443 0.0000 ( 10895 PWs)   bands (ev):

   -24.1637 -24.1598 -24.1318 -24.0308 -24.0215 -23.8293 -23.8221 -23.8025
   -23.7923 -23.7290 -12.1059  -5.3126  -4.1847  -3.6394  -1.9996   0.6146
     0.8866   1.1855

          k = 0.0000 0.1925 0.0000 ( 10909 PWs)   bands (ev):

   -24.1838 -24.1804 -24.1301 -24.0331 -24.0170 -23.8124 -23.8076 -23.7987
   -23.7901 -23.7258 -12.0031  -5.8824  -4.0788  -3.8015  -1.6985   0.7662
     1.0267   1.3894

          k = 0.0000 0.2406 0.0000 ( 10911 PWs)   bands (ev):

   -24.2049 -24.2016 -24.1278 -24.0357 -24.0115 -23.8139 -23.7977 -23.7875
   -23.7743 -23.7196 -11.8719  -6.4349  -3.9712  -3.9445  -1.5524   0.9963
     1.0108   1.2748

          k = 0.0000 0.2887 0.0000 ( 10909 PWs)   bands (ev):

   -24.2255 -24.2219 -24.1251 -24.0384 -24.0052 -23.8210 -23.7874 -23.7848
   -23.7505 -23.7098 -11.7136  -6.9647  -4.1359  -3.7835  -1.5248   0.5883
     1.2349   1.7118

          k = 0.0000 0.3368 0.0000 ( 10916 PWs)   bands (ev):

   -24.2444 -24.2404 -24.1224 -24.0410 -23.9983 -23.8286 -23.7822 -23.7817
   -23.7285 -23.6971 -11.5303  -7.4668  -4.2865  -3.5987  -1.5603   0.1802
     1.4544   2.1238

          k = 0.0000 0.3849 0.0000 ( 10938 PWs)   bands (ev):

   -24.2608 -24.2563 -24.1198 -24.0435 -23.9913 -23.8363 -23.7798 -23.7792
   -23.7094 -23.6839 -11.3261  -7.9349  -4.4165  -3.3945  -1.6194  -0.2150
     1.6946   2.3464

          k = 0.0000 0.4330 0.0000 ( 10948 PWs)   bands (ev):

   -24.2740 -24.2691 -24.1175 -24.0455 -23.9847 -23.8436 -23.7783 -23.7777
   -23.6938 -23.6720 -11.1089  -8.3591  -4.5215  -3.1795  -1.6794  -0.5833
     1.9610   2.5982

          k = 0.0000 0.4811 0.0000 ( 10930 PWs)   bands (ev):

   -24.2838 -24.2785 -24.1158 -24.0471 -23.9792 -23.8496 -23.7783 -23.7762
   -23.6822 -23.6627 -10.8954  -8.7213  -4.5985  -2.9706  -1.7283  -0.9041
     2.2545   2.8680

          k = 0.0000 0.5292 0.0000 ( 10944 PWs)   bands (ev):

   -24.2897 -24.2842 -24.1146 -24.0480 -23.9754 -23.8536 -23.7784 -23.7752
   -23.6752 -23.6569 -10.7218  -8.9847  -4.6454  -2.8027  -1.7597  -1.1401
     2.5716   3.1343

          k = 0.0000-0.5774 0.0000 ( 10920 PWs)   bands (ev):

   -24.2917 -24.2862 -24.1143 -24.0483 -23.9741 -23.8551 -23.7785 -23.7749
   -23.6728 -23.6549 -10.6502  -9.0862  -4.6611  -2.7341  -1.7704  -1.2315
     2.8363   3.0253

          k = 0.0417 0.0722 0.0000 ( 10889 PWs)   bands (ev):

   -24.1456 -24.1343 -24.1337 -24.0287 -24.0255 -23.8490 -23.8466 -23.7979
   -23.7944 -23.7307 -12.1946  -4.5747  -4.2764  -3.4752  -2.5638   0.5806
     0.7703   0.8466

          k = 0.0417 0.1203 0.0000 ( 10891 PWs)   bands (ev):

   -24.1611 -24.1472 -24.1341 -24.0302 -24.0228 -23.8353 -23.8297 -23.8010
   -23.7930 -23.7297 -12.1354  -5.1048  -4.2152  -3.5998  -2.1233   0.5610
     0.8435   1.1029

          k = 0.0417 0.1684 0.0000 ( 10912 PWs)   bands (ev):

   -24.1817 -24.1643 -24.1326 -24.0322 -24.0188 -23.8188 -23.8085 -23.8056
   -23.7909 -23.7272 -12.0471  -5.6545  -4.1241  -3.7596  -1.7547   0.6237
     0.9493   1.4596

          k = 0.0417 0.2165 0.0000 ( 10911 PWs)   bands (ev):

   -24.2041 -24.1832 -24.1304 -24.0347 -24.0137 -23.8113 -23.8028 -23.7885
   -23.7857 -23.7221 -11.9300  -6.2002  -4.0039  -3.9348  -1.5218   0.8209
     1.1015   1.1671

          k = 0.0417 0.2646 0.0000 ( 10905 PWs)   bands (ev):

   -24.2263 -24.2023 -24.1278 -24.0374 -24.0077 -23.8181 -23.7903 -23.7858
   -23.7630 -23.7130 -11.7851  -6.7312  -4.1100  -3.8561  -1.4298   0.7707
     1.1035   1.3618

          k = 0.0417 0.3127 0.0000 ( 10918 PWs)   bands (ev):

   -24.2471 -24.2203 -24.1250 -24.0402 -24.0010 -23.8256 -23.7831 -23.7828
   -23.7418 -23.7001 -11.6140  -7.2403  -4.2741  -3.6828  -1.4324   0.3660
     1.3460   1.8090

          k = 0.0417 0.3608 0.0000 ( 10930 PWs)   bands (ev):

   -24.2656 -24.2363 -24.1222 -24.0427 -23.9939 -23.8334 -23.7805 -23.7791
   -23.7230 -23.6853 -11.4196  -7.7209  -4.4195  -3.4876  -1.4792  -0.0332
     1.5802   2.2382

          k = 0.0417 0.4090 0.0000 ( 10943 PWs)   bands (ev):

   -24.2810 -24.2498 -24.1198 -24.0450 -23.9869 -23.8411 -23.7782 -23.7778
   -23.7072 -23.6711 -11.2074  -8.1649  -4.5407  -3.2766  -1.5384  -0.4140
     1.8348   2.4760

          k = 0.0417 0.4571 0.0000 ( 10949 PWs)   bands (ev):

   -24.2930 -24.2603 -24.1177 -24.0469 -23.9806 -23.8479 -23.7776 -23.7764
   -23.6948 -23.6593 -10.9888  -8.5590  -4.6344  -3.0615  -1.5927  -0.7601
     2.1154   2.7324

          k = 0.0417 0.5052 0.0000 ( 10937 PWs)   bands (ev):

   -24.3011 -24.2674 -24.1162 -24.0481 -23.9758 -23.8532 -23.7778 -23.7752
   -23.6864 -23.6509 -10.7884  -8.8771  -4.6980  -2.8665  -1.6327  -1.0439
     2.4218   2.9898

          k = 0.0417 0.5533 0.0000 ( 10926 PWs)   bands (ev):

   -24.3053 -24.2710 -24.1155 -24.0488 -23.9731 -23.8560 -23.7779 -23.7745
   -23.6821 -23.6465 -10.6565  -9.0681  -4.7302  -2.7396  -1.6537  -1.2157
     2.7421   3.1415

          k = 0.0833 0.1443 0.0000 ( 10893 PWs)   bands (ev):

   -24.1815 -24.1562 -24.1353 -24.0320 -24.0194 -23.8210 -23.8122 -23.8049
   -23.7912 -23.7275 -12.0617  -5.5690  -4.1392  -3.7591  -1.7568   0.5412
     0.9237   1.4524

          k = 0.0833 0.1925 0.0000 ( 10889 PWs)   bands (ev):

   -24.2045 -24.1700 -24.1342 -24.0344 -24.0147 -23.8102 -23.8051 -23.7928
   -23.7889 -23.7228 -11.9591  -6.0655  -4.0337  -3.9493  -1.4362   0.5984
     1.0370   1.2614

          k = 0.0833 0.2406 0.0000 ( 10908 PWs)   bands (ev):

   -24.2278 -24.1857 -24.1321 -24.0371 -24.0089 -23.8166 -23.7910 -23.7862
   -23.7739 -23.7137 -11.8281  -6.5682  -4.1465  -3.8999  -1.2324   0.7977
     0.8937   1.1879

          k = 0.0833 0.2887 0.0000 ( 10911 PWs)   bands (ev):

   -24.2502 -24.2016 -24.1296 -24.0399 -24.0023 -23.8240 -23.7834 -23.7816
   -23.7561 -23.6998 -11.6701  -7.0628  -4.3352  -3.7394  -1.1568   0.5078
     1.1333   1.3962

          k = 0.0833 0.3368 0.0000 ( 10927 PWs)   bands (ev):

   -24.2706 -24.2164 -24.1269 -24.0427 -23.9950 -23.8320 -23.7807 -23.7771
   -23.7393 -23.6831 -11.4870  -7.5395  -4.5054  -3.5549  -1.1651   0.1179
     1.4646   1.7591

          k = 0.0833 0.3849 0.0000 ( 10943 PWs)   bands (ev):

   -24.2881 -24.2294 -24.1243 -24.0452 -23.9876 -23.8401 -23.7782 -23.7755
   -23.7243 -23.6666 -11.2827  -7.9895  -4.6507  -3.3509  -1.2099  -0.2634
     1.7310   2.2818

          k = 0.0833 0.4330 0.0000 ( 10949 PWs)   bands (ev):

   -24.3023 -24.2400 -24.1220 -24.0474 -23.9805 -23.8477 -23.7760 -23.7754
   -23.7119 -23.6522 -11.0648  -8.4015  -4.7671  -3.1354  -1.2622  -0.6220
     2.0038   2.6102

          k = 0.0833 0.4811 0.0000 ( 10951 PWs)   bands (ev):

   -24.3127 -24.2478 -24.1202 -24.0490 -23.9744 -23.8542 -23.7757 -23.7744
   -23.7027 -23.6412 -10.8496  -8.7570  -4.8518  -2.9249  -1.3070  -0.9374
     2.2990   2.8317

          k = 0.0833 0.5292 0.0000 ( 10921 PWs)   bands (ev):

   -24.3191 -24.2526 -24.1191 -24.0500 -23.9703 -23.8587 -23.7761 -23.7734
   -23.6970 -23.6344 -10.6730  -9.0184  -4.9032  -2.7541  -1.3362  -1.1722
     2.6157   2.9785

          k = 0.0833 0.5774 0.0000 ( 10916 PWs)   bands (ev):

   -24.3212 -24.2543 -24.1187 -24.0504 -23.9688 -23.8603 -23.7763 -23.7731
   -23.6950 -23.6321 -10.5995  -9.1202  -4.9204  -2.6838  -1.3463  -1.2640
     2.8784   3.0204

          k = 0.1250 0.2165 0.0000 ( 10891 PWs)   bands (ev):

   -24.2283 -24.1788 -24.1348 -24.0370 -24.0093 -23.8162 -23.7904 -23.7863
   -23.7787 -23.7138 -11.8425  -6.5085  -4.1701  -3.9145  -1.1202   0.6200
     0.9377   1.1593

          k = 0.1250 0.2646 0.0000 ( 10904 PWs)   bands (ev):

   -24.2518 -24.1896 -24.1340 -24.0399 -24.0027 -23.8233 -23.7834 -23.7781
   -23.7670 -23.6992 -11.6982  -6.9626  -4.3922  -3.7678  -0.8899   0.5861
     0.7730   1.3167

          k = 0.1250 0.3127 0.0000 ( 10922 PWs)   bands (ev):

   -24.2737 -24.2011 -24.1323 -24.0429 -23.9954 -23.8314 -23.7805 -23.7725
   -23.7536 -23.6813 -11.5276  -7.4140  -4.5979  -3.5956  -0.7871   0.2204
     1.0952   1.5114

          k = 0.1250 0.3608 0.0000 ( 10950 PWs)   bands (ev):

   -24.2930 -24.2120 -24.1302 -24.0457 -23.9875 -23.8399 -23.7778 -23.7712
   -23.7400 -23.6629 -11.3335  -7.8518  -4.7773  -3.4010  -0.7776  -0.1471
     1.5277   1.7653

          k = 0.1250 0.4090 0.0000 ( 10948 PWs)   bands (ev):

   -24.3093 -24.2215 -24.1280 -24.0482 -23.9796 -23.8484 -23.7754 -23.7715
   -23.7280 -23.6464 -11.1208  -8.2653  -4.9249  -3.1899  -0.8090  -0.5041
     1.8997   2.1896

          k = 0.1250 0.4571 0.0000 ( 10948 PWs)   bands (ev):

   -24.3218 -24.2291 -24.1262 -24.0502 -23.9723 -23.8562 -23.7734 -23.7723
   -23.7185 -23.6331 -10.9000  -8.6399  -5.0375  -2.9728  -0.8491  -0.8346
     2.2009   2.6786

          k = 0.1250 0.5052 0.0000 ( 10943 PWs)   bands (ev):

   -24.3304 -24.2343 -24.1248 -24.0516 -23.9664 -23.8623 -23.7731 -23.7721
   -23.7119 -23.6238 -10.6945  -8.9494  -5.1134  -2.7732  -1.1119  -0.8820
     2.5105   2.7533

          k = 0.1250 0.5533 0.0000 ( 10946 PWs)   bands (ev):

   -24.3347 -24.2369 -24.1241 -24.0523 -23.9631 -23.8658 -23.7735 -23.7714
   -23.7086 -23.6191 -10.5562  -9.1401  -5.1515  -2.6402  -1.2843  -0.8999
     2.7652   2.8273

          k = 0.1667 0.2887 0.0000 ( 10925 PWs)   bands (ev):

   -24.2747 -24.1950 -24.1350 -24.0430 -23.9954 -23.8312 -23.7805 -23.7652
   -23.7644 -23.6806 -11.5412  -7.3685  -4.6362  -3.6092  -0.5786   0.2571
     0.8378   1.4827

          k = 0.1667 0.3368 0.0000 ( 10935 PWs)   bands (ev):

   -24.2955 -24.2011 -24.1350 -24.0460 -23.9873 -23.8400 -23.7775 -23.7646
   -23.7526 -23.6610 -11.3591  -7.7746  -4.8580  -3.4263  -0.3867  -0.0827
     1.0775   1.6833

          k = 0.1667 0.3849 0.0000 ( 10945 PWs)   bands (ev):

   -24.3135 -24.2074 -24.1342 -24.0488 -23.9787 -23.8491 -23.7748 -23.7658
   -23.7416 -23.6428 -11.1550  -8.1706  -5.0464  -3.2232  -0.4230  -0.3231
     1.4932   1.9182

          k = 0.1667 0.4330 0.0000 ( 10942 PWs)   bands (ev):

   -24.3280 -24.2130 -24.1332 -24.0512 -23.9701 -23.8581 -23.7725 -23.7673
   -23.7324 -23.6274 -10.9355  -8.5447  -5.1960  -3.0067  -0.7517  -0.3258
     2.0005   2.1990

          k = 0.1667 0.4811 0.0000 ( 10952 PWs)   bands (ev):

   -24.3387 -24.2173 -24.1321 -24.0530 -23.9625 -23.8661 -23.7708 -23.7687
   -23.7256 -23.6158 -10.7150  -8.8785  -5.3040  -2.7913  -1.0502  -0.3476
     2.4219   2.5580

          k = 0.1667 0.5292 0.0000 ( 10952 PWs)   bands (ev):

   -24.3452 -24.2201 -24.1314 -24.0542 -23.9570 -23.8718 -23.7697 -23.7696
   -23.7214 -23.6087 -10.5280  -9.1346  -5.3691  -2.6107  -1.2820  -0.3666
     2.5313   2.7460

          k = 0.1667 0.5774 0.0000 ( 10957 PWs)   bands (ev):

   -24.3474 -24.2210 -24.1311 -24.0545 -23.9549 -23.8740 -23.7700 -23.7693
   -23.7200 -23.6062 -10.4471  -9.2387  -5.3909  -2.5333  -1.3766  -0.3738
     2.5188   2.9818

          k = 0.2083 0.3608 0.0000 ( 10951 PWs)   bands (ev):

   -24.3149 -24.2017 -24.1372 -24.0491 -23.9783 -23.8494 -23.7746 -23.7613
   -23.7488 -23.6415 -11.1665  -8.1363  -5.0916  -3.2344  -0.3939  -0.0461
     1.1785   1.8929

          k = 0.2083 0.4090 0.0000 ( 10953 PWs)   bands (ev):

   -24.3312 -24.2028 -24.1386 -24.0518 -23.9688 -23.8593 -23.7720 -23.7620
   -23.7425 -23.6244 -10.9539  -8.4906  -5.2862  -3.0242  -0.7049   0.1424
     1.4844   2.1342

          k = 0.2083 0.4571 0.0000 ( 10975 PWs)   bands (ev):

   -24.3438 -24.2040 -24.1393 -24.0541 -23.9596 -23.8689 -23.7699 -23.7635
   -23.7368 -23.6108 -10.7294  -8.8251  -5.4351  -2.8041  -1.0040   0.2016
     1.9595   2.4026

          k = 0.2083 0.5052 0.0000 ( 10973 PWs)   bands (ev):

   -24.3524 -24.2051 -24.1395 -24.0556 -23.9516 -23.8772 -23.7684 -23.7648
   -23.7327 -23.6014 -10.5126  -9.1172  -5.5354  -2.5937  -1.2688   0.2092
     2.3577   2.4977

          k = 0.2083 0.5533 0.0000 ( 10974 PWs)   bands (ev):

   -24.3568 -24.2057 -24.1396 -24.0564 -23.9466 -23.8823 -23.7676 -23.7655
   -23.7306 -23.5966 -10.3566  -9.3115  -5.5858  -2.4439  -1.4464   0.2061
     2.3173   2.8880

          k = 0.2500 0.4330 0.0000 ( 10961 PWs)   bands (ev):

   -24.3455 -24.1986 -24.1426 -24.0544 -23.9584 -23.8700 -23.7695 -23.7602
   -23.7421 -23.6092 -10.7345  -8.8052  -5.4818  -2.8087  -0.9867   0.5261
     1.6054   2.3842

          k = 0.2500 0.4811 0.0000 ( 10981 PWs)   bands (ev):

   -24.3560 -24.1951 -24.1460 -24.0564 -23.9482 -23.8805 -23.7677 -23.7601
   -23.7407 -23.5977 -10.5062  -9.1033  -5.6253  -2.5864  -1.2577   0.7280
     1.9383   2.2657

          k = 0.2500 0.5292 0.0000 ( 10982 PWs)   bands (ev):

   -24.3625 -24.1928 -24.1483 -24.0576 -23.9397 -23.8892 -23.7665 -23.7606
   -23.7394 -23.5906 -10.2959  -9.3564  -5.7125  -2.3835  -1.4904   0.7933
     2.1876   2.3782

          k = 0.2500 0.5774 0.0000 ( 10975 PWs)   bands (ev):

   -24.3646 -24.1920 -24.1491 -24.0581 -23.9360 -23.8929 -23.7661 -23.7608
   -23.7389 -23.5882 -10.1922  -9.4744  -5.7418  -2.2844  -1.5995   0.8066
     2.1606   2.6185

          k = 0.2917 0.5052 0.0000 ( 10963 PWs)   bands (ev):

   -24.3644 -24.1868 -24.1529 -24.0581 -23.9368 -23.8920 -23.7661 -23.7576
   -23.7437 -23.5886 -10.2745  -9.3716  -5.7564  -2.3620  -1.5056   1.1604
     2.0121   2.1429

          k = 0.2917 0.5533 0.0000 ( 10973 PWs)   bands (ev):

   -24.3687 -24.1807 -24.1582 -24.0589 -23.9272 -23.9017 -23.7653 -23.7560
   -23.7455 -23.5840 -10.0685  -9.5957  -5.8232  -2.1644  -1.7147   1.3674
     2.0787   2.1963

          k = 0.3333 0.5774 0.0000 ( 10977 PWs)   bands (ev):

   -24.3707 -24.1691 -24.1691 -24.0594 -23.9145 -23.9145 -23.7649 -23.7510
   -23.7510 -23.5817  -9.8340  -9.8340  -5.8608  -1.9403  -1.9403   1.8637
     1.8637   2.0414

     the Fermi energy is    -2.2961 ev

!    total energy              =    -326.39281789 Ry
     estimated scf accuracy    <       0.00000043 Ry
     smearing contrib. (-TS)   =       0.00026201 Ry
     internal energy E=F+TS    =    -326.39307990 Ry

     The total energy is F=E-TS. E is the sum of the following terms:
     one-electron contribution =    -882.81907301 Ry
     hartree contribution      =     448.52255200 Ry
     xc contribution           =     -95.07486265 Ry
     ewald contribution        =     202.97830376 Ry

     convergence has been achieved in   5 iterations

     Writing all to output data dir ../tmp/stanene.save/

     init_run     :     45.19s CPU     19.05s WALL (       1 calls)
     electrons    :    857.09s CPU    350.67s WALL (       1 calls)

     Called by init_run:
     wfcinit      :     41.58s CPU     16.93s WALL (       1 calls)
     potinit      :      0.08s CPU      0.08s WALL (       1 calls)
     hinit0       :      0.46s CPU      0.46s WALL (       1 calls)

     Called by electrons:
     c_bands      :    740.66s CPU    299.07s WALL (       5 calls)
     sum_band     :    106.01s CPU     46.31s WALL (       5 calls)
     v_of_rho     :      0.29s CPU      0.29s WALL (       6 calls)
     newd         :     13.15s CPU      6.51s WALL (       6 calls)
     mix_rho      :      0.02s CPU      0.03s WALL (       5 calls)

     Called by c_bands:
     init_us_2    :      6.08s CPU      1.89s WALL (     671 calls)
     init_us_2:cp :      6.08s CPU      1.89s WALL (     671 calls)
     cegterg      :    725.40s CPU    294.32s WALL (     305 calls)

     Called by *egterg:
     cdiaghg      :      7.41s CPU      2.58s WALL (    1939 calls)
     h_psi        :    548.01s CPU    232.31s WALL (    2000 calls)
     s_psi        :     20.49s CPU      6.82s WALL (    2000 calls)
     g_psi        :      1.27s CPU      0.47s WALL (    1634 calls)

     Called by h_psi:
     h_psi:calbec :    365.95s CPU    174.60s WALL (    2000 calls)
     vloc_psi     :    161.96s CPU     50.88s WALL (    2000 calls)
     add_vuspsi   :     19.00s CPU      6.42s WALL (    2000 calls)

     General routines
     calbec       :    442.67s CPU    211.44s WALL (    2305 calls)
     fft          :      0.38s CPU      0.39s WALL (      66 calls)
     ffts         :      0.06s CPU      0.02s WALL (       5 calls)
     fftw         :    156.00s CPU     48.43s WALL (   43224 calls)

     Parallel routines

     PWSCF        :  15m 2.47s CPU   6m 9.99s WALL


   This run was terminated on:  19:14:30  19Jun2024            

=------------------------------------------------------------------------------=
   JOB DONE.
=------------------------------------------------------------------------------=
