### Running on host: handarmsi

     Program PWSCF v.7.2 starts on 19Jun2024 at 19: 6:34 

     This program is part of the open-source Quantum ESPRESSO suite
     for quantum simulation of materials; please cite
         "P. Giannozzi et al., J. Phys.:Condens. Matter 21 395502 (2009);
         "P. Giannozzi et al., J. Phys.:Condens. Matter 29 465901 (2017);
         "P. Giannozzi et al., J. Chem. Phys. 152 154105 (2020);
          URL http://www.quantum-espresso.org", 
     in publications or presentations arising from this work. More details at
     http://www.quantum-espresso.org/quote

     Parallel version (MPI), running on     1 processors

     MPI processes distributed on     1 nodes
     6047 MiB available memory on the printing compute node when the environment starts

     Reading input from sn_scf_ecutwfc-20.in

     Current dimensions of program PWSCF are:
     Max number of different atomic species (ntypx) = 10
     Max number of k-points (npk) =  40000
     Max angular momentum in pseudopotentials (lmaxx) =  4

     Subspace diagonalization in iterative solution of the eigenvalue problem:
     a serial algorithm will be used


     G-vector sticks info
     --------------------
     sticks:   dense  smooth     PW     G-vecs:    dense   smooth      PW
     Sum         433     433    127                31055    31055    5165

     Using Slab Decomposition



     bravais-lattice index     =            4
     lattice parameter (alat)  =       8.8439  a.u.
     unit-cell volume          =    2560.0529 (a.u.)^3
     number of atoms/cell      =            2
     number of atomic types    =            1
     number of electrons       =        28.00
     number of Kohn-Sham states=           18
     kinetic-energy cutoff     =      20.0000  Ry
     charge density cutoff     =      80.0000  Ry
     scf convergence threshold =      1.0E-06
     mixing beta               =       0.7000
     number of iterations used =            8  plain     mixing
     Exchange-correlation= SLA  PW   PBE  PBE
                           (   1   4   3   4   0   0   0)

     celldm(1)=   8.843918  celldm(2)=   0.000000  celldm(3)=   4.273504
     celldm(4)=   0.000000  celldm(5)=   0.000000  celldm(6)=   0.000000

     crystal axes: (cart. coord. in units of alat)
               a(1) = (   1.000000   0.000000   0.000000 )  
               a(2) = (  -0.500000   0.866025   0.000000 )  
               a(3) = (   0.000000   0.000000   4.273504 )  

     reciprocal axes: (cart. coord. in units 2 pi/alat)
               b(1) = (  1.000000  0.577350 -0.000000 )  
               b(2) = (  0.000000  1.154701  0.000000 )  
               b(3) = (  0.000000 -0.000000  0.234000 )  


     PseudoPot. # 1 for Sn read from file:
     ../pseudo/Sn_pbe_v1.uspp.F.UPF
     MD5 check sum: 4cf58ce39ec5d5d420df3dd08604eb00
     Pseudo is Ultrasoft + core correction, Zval = 14.0
     Generated by new atomic code, or converted to UPF format
     Using radial grid of  891 points,  6 beta functions with: 
                l(1) =   0
                l(2) =   0
                l(3) =   1
                l(4) =   1
                l(5) =   2
                l(6) =   2
     Q(r) pseudized with  6 coefficients,  rinner =    1.200   1.200   1.200
                                                       1.200   1.200

     atomic species   valence    mass     pseudopotential
        Sn            14.00   118.71000     Sn( 1.00)

     24 Sym. Ops., with inversion, found



   Cartesian axes

     site n.     atom                  positions (alat units)
         1           Sn  tau(   1) = (   0.0000000   0.5773503   2.1367521  )
         2           Sn  tau(   2) = (   0.5000000   0.2886751   2.1367521  )

     number of k points=    61  Methfessel-Paxton smearing, width (Ry)=  0.0200
                       cart. coord. in units 2pi/alat
        k(    1) = (   0.0000000   0.0000000   0.0000000), wk =   0.0034722
        k(    2) = (   0.0000000   0.0481125   0.0000000), wk =   0.0208333
        k(    3) = (   0.0000000   0.0962250   0.0000000), wk =   0.0208333
        k(    4) = (   0.0000000   0.1443376   0.0000000), wk =   0.0208333
        k(    5) = (   0.0000000   0.1924501   0.0000000), wk =   0.0208333
        k(    6) = (   0.0000000   0.2405626   0.0000000), wk =   0.0208333
        k(    7) = (   0.0000000   0.2886751   0.0000000), wk =   0.0208333
        k(    8) = (   0.0000000   0.3367877   0.0000000), wk =   0.0208333
        k(    9) = (   0.0000000   0.3849002   0.0000000), wk =   0.0208333
        k(   10) = (   0.0000000   0.4330127   0.0000000), wk =   0.0208333
        k(   11) = (   0.0000000   0.4811252   0.0000000), wk =   0.0208333
        k(   12) = (   0.0000000   0.5292377   0.0000000), wk =   0.0208333
        k(   13) = (   0.0000000  -0.5773503   0.0000000), wk =   0.0104167
        k(   14) = (   0.0416667   0.0721688   0.0000000), wk =   0.0208333
        k(   15) = (   0.0416667   0.1202813   0.0000000), wk =   0.0416667
        k(   16) = (   0.0416667   0.1683938   0.0000000), wk =   0.0416667
        k(   17) = (   0.0416667   0.2165064   0.0000000), wk =   0.0416667
        k(   18) = (   0.0416667   0.2646189   0.0000000), wk =   0.0416667
        k(   19) = (   0.0416667   0.3127314   0.0000000), wk =   0.0416667
        k(   20) = (   0.0416667   0.3608439   0.0000000), wk =   0.0416667
        k(   21) = (   0.0416667   0.4089564   0.0000000), wk =   0.0416667
        k(   22) = (   0.0416667   0.4570690   0.0000000), wk =   0.0416667
        k(   23) = (   0.0416667   0.5051815   0.0000000), wk =   0.0416667
        k(   24) = (   0.0416667   0.5532940   0.0000000), wk =   0.0416667
        k(   25) = (   0.0833333   0.1443376   0.0000000), wk =   0.0208333
        k(   26) = (   0.0833333   0.1924501   0.0000000), wk =   0.0416667
        k(   27) = (   0.0833333   0.2405626   0.0000000), wk =   0.0416667
        k(   28) = (   0.0833333   0.2886751   0.0000000), wk =   0.0416667
        k(   29) = (   0.0833333   0.3367877   0.0000000), wk =   0.0416667
        k(   30) = (   0.0833333   0.3849002   0.0000000), wk =   0.0416667
        k(   31) = (   0.0833333   0.4330127   0.0000000), wk =   0.0416667
        k(   32) = (   0.0833333   0.4811252   0.0000000), wk =   0.0416667
        k(   33) = (   0.0833333   0.5292377   0.0000000), wk =   0.0416667
        k(   34) = (   0.0833333   0.5773503   0.0000000), wk =   0.0208333
        k(   35) = (   0.1250000   0.2165064   0.0000000), wk =   0.0208333
        k(   36) = (   0.1250000   0.2646189   0.0000000), wk =   0.0416667
        k(   37) = (   0.1250000   0.3127314   0.0000000), wk =   0.0416667
        k(   38) = (   0.1250000   0.3608439   0.0000000), wk =   0.0416667
        k(   39) = (   0.1250000   0.4089564   0.0000000), wk =   0.0416667
        k(   40) = (   0.1250000   0.4570690   0.0000000), wk =   0.0416667
        k(   41) = (   0.1250000   0.5051815   0.0000000), wk =   0.0416667
        k(   42) = (   0.1250000   0.5532940   0.0000000), wk =   0.0416667
        k(   43) = (   0.1666667   0.2886751   0.0000000), wk =   0.0208333
        k(   44) = (   0.1666667   0.3367877   0.0000000), wk =   0.0416667
        k(   45) = (   0.1666667   0.3849002   0.0000000), wk =   0.0416667
        k(   46) = (   0.1666667   0.4330127   0.0000000), wk =   0.0416667
        k(   47) = (   0.1666667   0.4811252   0.0000000), wk =   0.0416667
        k(   48) = (   0.1666667   0.5292377   0.0000000), wk =   0.0416667
        k(   49) = (   0.1666667   0.5773503   0.0000000), wk =   0.0208333
        k(   50) = (   0.2083333   0.3608439   0.0000000), wk =   0.0208333
        k(   51) = (   0.2083333   0.4089564   0.0000000), wk =   0.0416667
        k(   52) = (   0.2083333   0.4570690   0.0000000), wk =   0.0416667
        k(   53) = (   0.2083333   0.5051815   0.0000000), wk =   0.0416667
        k(   54) = (   0.2083333   0.5532940   0.0000000), wk =   0.0416667
        k(   55) = (   0.2500000   0.4330127   0.0000000), wk =   0.0208333
        k(   56) = (   0.2500000   0.4811252   0.0000000), wk =   0.0416667
        k(   57) = (   0.2500000   0.5292377   0.0000000), wk =   0.0416667
        k(   58) = (   0.2500000   0.5773503   0.0000000), wk =   0.0208333
        k(   59) = (   0.2916667   0.5051815   0.0000000), wk =   0.0208333
        k(   60) = (   0.2916667   0.5532940   0.0000000), wk =   0.0416667
        k(   61) = (   0.3333333   0.5773503   0.0000000), wk =   0.0069444

     Dense  grid:    31055 G-vectors     FFT dimensions: (  25,  25, 108)

     Estimated max dynamical RAM per process >     175.33 MB

     Check: negative core charge=   -0.000022

     Initial potential from superposition of free atoms

     starting charge      25.9999, renormalised to      28.0000

     negative rho (up, down):  1.132E-01 0.000E+00
     Starting wfcs are   18 randomized atomic wfcs

     total cpu time spent up to now is        1.9 secs

     Self-consistent Calculation

     iteration #  1     ecut=    20.00 Ry     beta= 0.70
     Davidson diagonalization with overlap
     ethr =  1.00E-02,  avg # of iterations =  9.4

     negative rho (up, down):  3.479E-02 0.000E+00

     total cpu time spent up to now is        7.1 secs

     total energy              =    -325.12132278 Ry
     estimated scf accuracy    <       2.77045795 Ry

     iteration #  2     ecut=    20.00 Ry     beta= 0.70
     Davidson diagonalization with overlap
     ethr =  9.89E-03,  avg # of iterations =  2.6

     negative rho (up, down):  5.791E-02 0.000E+00

     total cpu time spent up to now is       12.7 secs

     total energy              =    -326.20618837 Ry
     estimated scf accuracy    <       0.48010564 Ry

     iteration #  3     ecut=    20.00 Ry     beta= 0.70
     Davidson diagonalization with overlap
     ethr =  1.71E-03,  avg # of iterations =  2.5

     negative rho (up, down):  7.942E-02 0.000E+00

     total cpu time spent up to now is       20.3 secs

     total energy              =    -326.27755475 Ry
     estimated scf accuracy    <       0.01025908 Ry

     iteration #  4     ecut=    20.00 Ry     beta= 0.70
     Davidson diagonalization with overlap
     ethr =  3.66E-05,  avg # of iterations =  9.0

     negative rho (up, down):  8.338E-02 0.000E+00

     total cpu time spent up to now is       25.8 secs

     total energy              =    -326.28037473 Ry
     estimated scf accuracy    <       0.00049529 Ry

     iteration #  5     ecut=    20.00 Ry     beta= 0.70
     Davidson diagonalization with overlap
     ethr =  1.77E-06,  avg # of iterations =  6.9

     negative rho (up, down):  8.416E-02 0.000E+00

     total cpu time spent up to now is       30.1 secs

     total energy              =    -326.28046590 Ry
     estimated scf accuracy    <       0.00001296 Ry

     iteration #  6     ecut=    20.00 Ry     beta= 0.70
     Davidson diagonalization with overlap
     ethr =  4.63E-08,  avg # of iterations =  2.6

     negative rho (up, down):  8.411E-02 0.000E+00

     total cpu time spent up to now is       33.5 secs

     End of self-consistent calculation

          k = 0.0000 0.0000 0.0000 (  3905 PWs)   bands (ev):

   -24.3741 -24.3741 -24.3664 -24.2792 -24.2792 -24.0842 -24.0842 -24.0457
   -24.0457 -23.9514 -12.2996  -4.3720  -3.7807  -3.4160  -3.4160   0.3130
     0.6008   0.6008

          k = 0.0000 0.0481 0.0000 (  3885 PWs)   bands (ev):

   -24.3771 -24.3751 -24.3646 -24.2764 -24.2698 -24.0785 -24.0764 -24.0439
   -24.0425 -23.9458 -12.2846  -4.3563  -4.2135  -3.4492  -3.0003   0.3233
     0.5909   0.6646

          k = 0.0000 0.0962 0.0000 (  3881 PWs)   bands (ev):

   -24.3880 -24.3872 -24.3659 -24.2767 -24.2639 -24.0627 -24.0617 -24.0474
   -24.0443 -23.9429 -12.2402  -4.7892  -4.3104  -3.5428  -2.4887   0.3525
     0.5889   0.8482

          k = 0.0000 0.1443 0.0000 (  3877 PWs)   bands (ev):

   -24.4062 -24.4060 -24.3642 -24.2742 -24.2608 -24.0521 -24.0452 -24.0415
   -24.0380 -23.9406 -12.1663  -5.3695  -4.2339  -3.6788  -2.0535   0.4096
     0.6511   1.1352

          k = 0.0000 0.1925 0.0000 (  3871 PWs)   bands (ev):

   -24.4257 -24.4252 -24.3629 -24.2734 -24.2613 -24.0568 -24.0402 -24.0298
   -24.0067 -23.9338 -12.0632  -5.9401  -4.1278  -3.8399  -1.7522   0.5242
     0.8217   1.1103

          k = 0.0000 0.2406 0.0000 (  3867 PWs)   bands (ev):

   -24.4454 -24.4428 -24.3630 -24.2745 -24.2562 -24.0619 -24.0382 -24.0134
   -23.9816 -23.9312 -11.9317  -6.4931  -4.0095  -3.9932  -1.6076   0.6877
     0.9538   1.1354

          k = 0.0000 0.2887 0.0000 (  3873 PWs)   bands (ev):

   -24.4641 -24.4633 -24.3599 -24.2782 -24.2495 -24.0706 -24.0317 -24.0054
   -23.9677 -23.9293 -11.7734  -7.0232  -4.1749  -3.8318  -1.5826   0.5448
     0.8757   1.4262

          k = 0.0000 0.3368 0.0000 (  3859 PWs)   bands (ev):

   -24.4791 -24.4768 -24.3562 -24.2802 -24.2385 -24.0772 -24.0267 -23.9965
   -23.9477 -23.9209 -11.5896  -7.5250  -4.3252  -3.6460  -1.6197   0.1351
     1.0874   1.6275

          k = 0.0000 0.3849 0.0000 (  3855 PWs)   bands (ev):

   -24.4980 -24.4907 -24.3487 -24.2869 -24.2336 -24.0807 -24.0276 -23.9884
   -23.9304 -23.9105 -11.3853  -7.9929  -4.4543  -3.4408  -1.6798  -0.2626
     1.3268   1.8583

          k = 0.0000 0.4330 0.0000 (  3879 PWs)   bands (ev):

   -24.5137 -24.5106 -24.3488 -24.2874 -24.2342 -24.0940 -24.0266 -23.9931
   -23.9234 -23.9026 -11.1687  -8.4176  -4.5604  -3.2251  -1.7416  -0.6335
     1.5954   2.1175

          k = 0.0000 0.4811 0.0000 (  3883 PWs)   bands (ev):

   -24.5242 -24.5195 -24.3523 -24.2909 -24.2286 -24.0991 -24.0293 -23.9936
   -23.9126 -23.8918 -10.9558  -8.7789  -4.6375  -3.0154  -1.7911  -0.9562
     1.8920   2.4015

          k = 0.0000 0.5292 0.0000 (  3868 PWs)   bands (ev):

   -24.5291 -24.5233 -24.3504 -24.2911 -24.2191 -24.1003 -24.0250 -23.9912
   -23.9086 -23.8816 -10.7823  -9.0417  -4.6840  -2.8453  -1.8221  -1.1942
     2.2165   2.7013

          k = 0.0000-0.5774 0.0000 (  3876 PWs)   bands (ev):

   -24.5339 -24.5268 -24.3497 -24.2921 -24.2171 -24.1074 -24.0275 -23.9949
   -23.9052 -23.8783 -10.7110  -9.1428  -4.7000  -2.7760  -1.8332  -1.2869
     2.5154   2.6341

          k = 0.0417 0.0722 0.0000 (  3869 PWs)   bands (ev):

   -24.3856 -24.3800 -24.3645 -24.2714 -24.2626 -24.0635 -24.0613 -24.0483
   -24.0411 -23.9436 -12.2549  -4.6326  -4.3257  -3.5156  -2.6159   0.3421
     0.5773   0.7969

          k = 0.0417 0.1203 0.0000 (  3867 PWs)   bands (ev):

   -24.4028 -24.3923 -24.3648 -24.2709 -24.2606 -24.0503 -24.0479 -24.0455
   -24.0419 -23.9392 -12.1957  -5.1609  -4.2644  -3.6397  -2.1764   0.3761
     0.5910   1.0526

          k = 0.0417 0.1684 0.0000 (  3876 PWs)   bands (ev):

   -24.4245 -24.4088 -24.3630 -24.2757 -24.2617 -24.0549 -24.0413 -24.0350
   -24.0235 -23.9363 -12.1073  -5.7115  -4.1731  -3.7994  -1.8082   0.4493
     0.6808   1.0648

          k = 0.0417 0.2165 0.0000 (  3871 PWs)   bands (ev):

   -24.4444 -24.4269 -24.3625 -24.2767 -24.2578 -24.0592 -24.0380 -24.0194
   -23.9977 -23.9327 -11.9900  -6.2586  -4.0528  -3.9739  -1.5755   0.5954
     0.8796   1.1274

          k = 0.0417 0.2646 0.0000 (  3867 PWs)   bands (ev):

   -24.4655 -24.4431 -24.3596 -24.2812 -24.2533 -24.0653 -24.0330 -24.0064
   -23.9727 -23.9298 -11.8448  -6.7897  -4.1486  -3.9043  -1.4858   0.7283
     0.7825   1.2214

          k = 0.0417 0.3127 0.0000 (  3866 PWs)   bands (ev):

   -24.4834 -24.4605 -24.3566 -24.2813 -24.2427 -24.0752 -24.0308 -23.9972
   -23.9588 -23.9234 -11.6735  -7.2991  -4.3134  -3.7307  -1.4903   0.3220
     0.9868   1.5334

          k = 0.0417 0.3608 0.0000 (  3862 PWs)   bands (ev):

   -24.5010 -24.4720 -24.3528 -24.2847 -24.2355 -24.0801 -24.0289 -23.9932
   -23.9452 -23.9120 -11.4789  -7.7793  -4.4589  -3.5346  -1.5386  -0.0791
     1.2138   1.7492

          k = 0.0417 0.4090 0.0000 (  3870 PWs)   bands (ev):

   -24.5208 -24.4885 -24.3513 -24.2868 -24.2300 -24.0885 -24.0280 -23.9930
   -23.9327 -23.9000 -11.2669  -8.2232  -4.5803  -3.3226  -1.5989  -0.4623
     1.4682   1.9932

          k = 0.0417 0.4571 0.0000 (  3882 PWs)   bands (ev):

   -24.5338 -24.5012 -24.3536 -24.2900 -24.2301 -24.0982 -24.0270 -23.9933
   -23.9234 -23.8898 -11.0490  -8.6173  -4.6739  -3.1068  -1.6541  -0.8108
     1.7511   2.2629

          k = 0.0417 0.5052 0.0000 (  3876 PWs)   bands (ev):

   -24.5410 -24.5066 -24.3549 -24.2919 -24.2247 -24.1010 -24.0265 -23.9893
   -23.9164 -23.8797 -10.8488  -8.9345  -4.7371  -2.9101  -1.6942  -1.0966
     2.0624   2.5507

          k = 0.0417 0.5533 0.0000 (  3874 PWs)   bands (ev):

   -24.5468 -24.5100 -24.3530 -24.2926 -24.2164 -24.1067 -24.0258 -23.9905
   -23.9141 -23.8743 -10.7173  -9.1250  -4.7694  -2.7817  -1.7151  -1.2702
     2.3967   2.8249

          k = 0.0833 0.1443 0.0000 (  3887 PWs)   bands (ev):

   -24.4250 -24.4028 -24.3657 -24.2761 -24.2619 -24.0567 -24.0431 -24.0378
   -24.0333 -23.9406 -12.1221  -5.6260  -4.1886  -3.7995  -1.8104   0.4028
     0.6202   1.1278

          k = 0.0833 0.1925 0.0000 (  3873 PWs)   bands (ev):

   -24.4455 -24.4151 -24.3629 -24.2763 -24.2570 -24.0577 -24.0390 -24.0218
   -24.0094 -23.9334 -12.0191  -6.1237  -4.0825  -3.9897  -1.4879   0.4736
     0.7177   1.2236

          k = 0.0833 0.2406 0.0000 (  3876 PWs)   bands (ev):

   -24.4668 -24.4285 -24.3628 -24.2806 -24.2539 -24.0622 -24.0370 -24.0099
   -23.9916 -23.9298 -11.8879  -6.6272  -4.1871  -3.9484  -1.2854   0.6488
     0.8538   0.8912

          k = 0.0833 0.2887 0.0000 (  3878 PWs)   bands (ev):

   -24.4875 -24.4447 -24.3613 -24.2829 -24.2486 -24.0740 -24.0354 -24.0006
   -23.9691 -23.9248 -11.7298  -7.1221  -4.3756  -3.7877  -1.2121   0.4657
     0.8876   1.1943

          k = 0.0833 0.3368 0.0000 (  3863 PWs)   bands (ev):

   -24.5074 -24.4570 -24.3571 -24.2828 -24.2357 -24.0786 -24.0325 -23.9912
   -23.9555 -23.9091 -11.5465  -7.5983  -4.5455  -3.6024  -1.2215   0.0743
     1.1222   1.6295

          k = 0.0833 0.3849 0.0000 (  3870 PWs)   bands (ev):

   -24.5272 -24.4655 -24.3562 -24.2870 -24.2302 -24.0892 -24.0279 -23.9935
   -23.9480 -23.8953 -11.3422  -8.0484  -4.6917  -3.3977  -1.2678  -0.3093
     1.3688   1.8953

          k = 0.0833 0.4330 0.0000 (  3870 PWs)   bands (ev):

   -24.5419 -24.4770 -24.3553 -24.2873 -24.2281 -24.0987 -24.0225 -23.9911
   -23.9375 -23.8815 -11.1246  -8.4600  -4.8074  -3.1810  -1.3211  -0.6702
     1.6392   2.1463

          k = 0.0833 0.4811 0.0000 (  3865 PWs)   bands (ev):

   -24.5518 -24.4858 -24.3538 -24.2892 -24.2215 -24.1020 -24.0232 -23.9855
   -23.9301 -23.8714 -10.9095  -8.8150  -4.8917  -2.9689  -1.3659  -0.9876
     1.9372   2.4112

          k = 0.0833 0.5292 0.0000 (  3866 PWs)   bands (ev):

   -24.5596 -24.4900 -24.3537 -24.2925 -24.2164 -24.1071 -24.0232 -23.9876
   -23.9257 -23.8622 -10.7335  -9.0758  -4.9436  -2.7968  -1.3957  -1.2242
     2.2619   2.6541

          k = 0.0833 0.5774 0.0000 (  3860 PWs)   bands (ev):

   -24.5613 -24.4923 -24.3533 -24.2924 -24.2103 -24.1089 -24.0250 -23.9861
   -23.9208 -23.8583 -10.6601  -9.1770  -4.9604  -2.7255  -1.4055  -1.3170
     2.5597   2.6763

          k = 0.1250 0.2165 0.0000 (  3881 PWs)   bands (ev):

   -24.4672 -24.4241 -24.3654 -24.2784 -24.2545 -24.0653 -24.0372 -24.0097
   -23.9971 -23.9318 -11.9026  -6.5671  -4.2109  -3.9633  -1.1719   0.5161
     0.8183   1.2817

          k = 0.1250 0.2646 0.0000 (  3876 PWs)   bands (ev):

   -24.4889 -24.4354 -24.3645 -24.2813 -24.2491 -24.0730 -24.0347 -23.9936
   -23.9840 -23.9200 -11.7580  -7.0220  -4.4333  -3.8163  -0.9414   0.5462
     0.6694   0.9760

          k = 0.1250 0.3127 0.0000 (  3866 PWs)   bands (ev):

   -24.5103 -24.4434 -24.3624 -24.2846 -24.2386 -24.0787 -24.0300 -23.9873
   -23.9701 -23.9062 -11.5872  -7.4730  -4.6387  -3.6433  -0.8399   0.1790
     0.9608   1.2028

          k = 0.1250 0.3608 0.0000 (  3869 PWs)   bands (ev):

   -24.5323 -24.4515 -24.3610 -24.2878 -24.2319 -24.0888 -24.0294 -23.9861
   -23.9586 -23.8917 -11.3932  -7.9111  -4.8182  -3.4483  -0.8322  -0.1905
     1.2729   1.5774

          k = 0.1250 0.4090 0.0000 (  3873 PWs)   bands (ev):

   -24.5504 -24.4588 -24.3610 -24.2913 -24.2255 -24.1009 -24.0279 -23.9854
   -23.9511 -23.8750 -11.1806  -8.3245  -4.9661  -3.2366  -0.8650  -0.5491
     1.5508   2.0565

          k = 0.1250 0.4571 0.0000 (  3871 PWs)   bands (ev):

   -24.5620 -24.4661 -24.3595 -24.2947 -24.2202 -24.1047 -24.0235 -23.9861
   -23.9449 -23.8632 -10.9599  -8.6987  -5.0791  -3.0180  -0.9064  -0.8816
     1.8402   2.2896

          k = 0.1250 0.5052 0.0000 (  3861 PWs)   bands (ev):

   -24.5710 -24.4709 -24.3580 -24.2951 -24.2097 -24.1111 -24.0221 -23.9847
   -23.9364 -23.8508 -10.7547  -9.0075  -5.1546  -2.8166  -1.1609  -0.9390
     2.1530   2.4759

          k = 0.1250 0.5533 0.0000 (  3868 PWs)   bands (ev):

   -24.5763 -24.4751 -24.3576 -24.2941 -24.2079 -24.1162 -24.0245 -23.9887
   -23.9342 -23.8477 -10.6168  -9.1979  -5.1932  -2.6824  -1.3349  -0.9576
     2.4861   2.5532

          k = 0.1667 0.2887 0.0000 (  3876 PWs)   bands (ev):

   -24.5136 -24.4412 -24.3631 -24.2858 -24.2403 -24.0798 -24.0322 -23.9853
   -23.9781 -23.9080 -11.6010  -7.4284  -4.6781  -3.6570  -0.6291   0.2168
     0.7460   1.1314

          k = 0.1667 0.3368 0.0000 (  3874 PWs)   bands (ev):

   -24.5345 -24.4447 -24.3641 -24.2900 -24.2328 -24.0876 -24.0289 -23.9803
   -23.9728 -23.8909 -11.4187  -7.8345  -4.8998  -3.4736  -0.4379  -0.1244
     0.9842   1.3357

          k = 0.1667 0.3849 0.0000 (  3869 PWs)   bands (ev):

   -24.5532 -24.4472 -24.3651 -24.2929 -24.2242 -24.0986 -24.0255 -23.9819
   -23.9614 -23.8712 -11.2149  -8.2299  -5.0879  -3.2701  -0.4658  -0.3761
     1.3743   1.6004

          k = 0.1667 0.4330 0.0000 (  3866 PWs)   bands (ev):

   -24.5692 -24.4505 -24.3645 -24.2936 -24.2172 -24.1072 -24.0243 -23.9835
   -23.9540 -23.8543 -10.9954  -8.6040  -5.2375  -3.0526  -0.7958  -0.3800
     1.7505   2.0155

          k = 0.1667 0.4811 0.0000 (  3871 PWs)   bands (ev):

   -24.5813 -24.4546 -24.3630 -24.2986 -24.2100 -24.1155 -24.0217 -23.9854
   -23.9514 -23.8450 -10.7752  -8.9377  -5.3463  -2.8358  -1.0960  -0.4033
     2.0698   2.3130

          k = 0.1667 0.5292 0.0000 (  3856 PWs)   bands (ev):

   -24.5865 -24.4553 -24.3616 -24.2980 -24.1999 -24.1206 -24.0178 -23.9860
   -23.9441 -23.8337 -10.5882  -9.1931  -5.4111  -2.6532  -1.3295  -0.4224
     2.3369   2.3966

          k = 0.1667 0.5774 0.0000 (  3864 PWs)   bands (ev):

   -24.5902 -24.4594 -24.3612 -24.2988 -24.2002 -24.1236 -24.0211 -23.9842
   -23.9436 -23.8338 -10.5078  -9.2970  -5.4327  -2.5752  -1.4253  -0.4302
     2.3352   2.6855

          k = 0.2083 0.3608 0.0000 (  3866 PWs)   bands (ev):

   -24.5548 -24.4449 -24.3660 -24.2920 -24.2233 -24.0978 -24.0207 -23.9754
   -23.9704 -23.8703 -11.2263  -8.1961  -5.1335  -3.2811  -0.4354  -0.0956
     1.0940   1.5393

          k = 0.2083 0.4090 0.0000 (  3871 PWs)   bands (ev):

   -24.5737 -24.4434 -24.3678 -24.2958 -24.2150 -24.1102 -24.0232 -23.9780
   -23.9648 -23.8529 -11.0139  -8.5501  -5.3281  -3.0703  -0.7469   0.0915
     1.4013   1.7846

          k = 0.2083 0.4571 0.0000 (  3854 PWs)   bands (ev):

   -24.5856 -24.4391 -24.3673 -24.2964 -24.2057 -24.1163 -24.0200 -23.9762
   -23.9581 -23.8345 -10.7890  -8.8844  -5.4767  -2.8489  -1.0469   0.1493
     1.8678   2.0701

          k = 0.2083 0.5052 0.0000 (  3854 PWs)   bands (ev):

   -24.5957 -24.4398 -24.3689 -24.3006 -24.1981 -24.1242 -24.0180 -23.9782
   -23.9531 -23.8249 -10.5726  -9.1764  -5.5772  -2.6371  -1.3129   0.1557
     2.1708   2.3220

          k = 0.2083 0.5533 0.0000 (  3852 PWs)   bands (ev):

   -24.5994 -24.4394 -24.3695 -24.3000 -24.1920 -24.1287 -24.0168 -23.9816
   -23.9507 -23.8205 -10.4167  -9.3705  -5.6277  -2.4857  -1.4922   0.1517
     2.1417   2.6533

          k = 0.2500 0.4330 0.0000 (  3866 PWs)   bands (ev):

   -24.5885 -24.4366 -24.3688 -24.2997 -24.2071 -24.1208 -24.0219 -23.9735
   -23.9670 -23.8345 -10.7944  -8.8650  -5.5236  -2.8540  -1.0291   0.4773
     1.5293   2.0330

          k = 0.2500 0.4811 0.0000 (  3844 PWs)   bands (ev):

   -24.5983 -24.4291 -24.3695 -24.3000 -24.1925 -24.1273 -24.0161 -23.9718
   -23.9609 -23.8197 -10.5660  -9.1629  -5.6669  -2.6301  -1.2997   0.6786
     1.8690   2.0813

          k = 0.2500 0.5292 0.0000 (  3835 PWs)   bands (ev):

   -24.6042 -24.4243 -24.3728 -24.2996 -24.1859 -24.1340 -24.0157 -23.9725
   -23.9551 -23.8087 -10.3557  -9.4157  -5.7537  -2.4259  -1.5334   0.7425
     2.0145   2.3191

          k = 0.2500 0.5774 0.0000 (  3838 PWs)   bands (ev):

   -24.6057 -24.4231 -24.3757 -24.2998 -24.1795 -24.1387 -24.0135 -23.9764
   -23.9562 -23.8086 -10.2523  -9.5339  -5.7832  -2.3259  -1.6436   0.7551
     1.9902   2.5576

          k = 0.2917 0.5052 0.0000 (  3826 PWs)   bands (ev):

   -24.6048 -24.4156 -24.3731 -24.2993 -24.1838 -24.1357 -24.0162 -23.9673
   -23.9589 -23.8044 -10.3336  -9.4312  -5.7974  -2.4044  -1.5475   1.1138
     1.9498   1.9704

          k = 0.2917 0.5533 0.0000 (  3824 PWs)   bands (ev):

   -24.6107 -24.4081 -24.3804 -24.3010 -24.1733 -24.1477 -24.0153 -23.9655
   -23.9588 -23.7989 -10.1280  -9.6553  -5.8641  -2.2061  -1.7569   1.3198
     1.9096   2.1448

          k = 0.3333 0.5774 0.0000 (  3846 PWs)   bands (ev):

   -24.6174 -24.3961 -24.3961 -24.3074 -24.1655 -24.1655 -24.0190 -23.9652
   -23.9652 -23.7995  -9.8940  -9.8940  -5.9024  -1.9825  -1.9825   1.8165
     1.8165   1.8731

     the Fermi energy is    -2.3401 ev

!    total energy              =    -326.28046863 Ry
     estimated scf accuracy    <       0.00000009 Ry
     smearing contrib. (-TS)   =       0.00026852 Ry
     internal energy E=F+TS    =    -326.28073715 Ry

     The total energy is F=E-TS. E is the sum of the following terms:
     one-electron contribution =    -882.34436084 Ry
     hartree contribution      =     448.05208606 Ry
     xc contribution           =     -94.96676613 Ry
     ewald contribution        =     202.97830376 Ry

     convergence has been achieved in   6 iterations

     Writing all to output data dir ../tmp/stanene.save/

     init_run     :      4.93s CPU      1.83s WALL (       1 calls)
     electrons    :    105.74s CPU     31.65s WALL (       1 calls)

     Called by init_run:
     wfcinit      :      4.55s CPU      1.51s WALL (       1 calls)
     potinit      :      0.03s CPU      0.03s WALL (       1 calls)
     hinit0       :      0.23s CPU      0.23s WALL (       1 calls)

     Called by electrons:
     c_bands      :     93.55s CPU     27.62s WALL (       6 calls)
     sum_band     :     11.32s CPU      3.63s WALL (       6 calls)
     v_of_rho     :      0.37s CPU      0.14s WALL (       7 calls)
     newd         :      0.53s CPU      0.29s WALL (       7 calls)
     mix_rho      :      0.05s CPU      0.01s WALL (       6 calls)

     Called by c_bands:
     init_us_2    :      2.59s CPU      0.70s WALL (     793 calls)
     init_us_2:cp :      2.58s CPU      0.69s WALL (     793 calls)
     cegterg      :     86.17s CPU     25.72s WALL (     366 calls)

     Called by *egterg:
     cdiaghg      :      3.13s CPU      0.82s WALL (    2372 calls)
     h_psi        :     72.53s CPU     21.77s WALL (    2433 calls)
     s_psi        :      1.74s CPU      0.55s WALL (    2433 calls)
     g_psi        :      0.81s CPU      0.20s WALL (    2006 calls)

     Called by h_psi:
     h_psi:calbec :     13.55s CPU      5.88s WALL (    2433 calls)
     vloc_psi     :     56.51s CPU     15.17s WALL (    2433 calls)
     add_vuspsi   :      1.98s CPU      0.59s WALL (    2433 calls)

     General routines
     calbec       :     15.17s CPU      6.62s WALL (    2799 calls)
     fft          :      0.25s CPU      0.18s WALL (      77 calls)
     ffts         :      0.01s CPU      0.00s WALL (       6 calls)
     fftw         :     51.35s CPU     13.91s WALL (   51572 calls)

     Parallel routines

     PWSCF        :   1m50.86s CPU     33.63s WALL


   This run was terminated on:  19: 7: 8  19Jun2024            

=------------------------------------------------------------------------------=
   JOB DONE.
=------------------------------------------------------------------------------=
