### Running on host: handarmsi

     Program PWSCF v.7.2 starts on 19Jun2024 at 19: 6:14 

     This program is part of the open-source Quantum ESPRESSO suite
     for quantum simulation of materials; please cite
         "P. Giannozzi et al., J. Phys.:Condens. Matter 21 395502 (2009);
         "P. Giannozzi et al., J. Phys.:Condens. Matter 29 465901 (2017);
         "P. Giannozzi et al., J. Chem. Phys. 152 154105 (2020);
          URL http://www.quantum-espresso.org", 
     in publications or presentations arising from this work. More details at
     http://www.quantum-espresso.org/quote

     Parallel version (MPI), running on     1 processors

     MPI processes distributed on     1 nodes
     6096 MiB available memory on the printing compute node when the environment starts

     Reading input from sn_scf_ecutwfc-10.in

     Current dimensions of program PWSCF are:
     Max number of different atomic species (ntypx) = 10
     Max number of k-points (npk) =  40000
     Max angular momentum in pseudopotentials (lmaxx) =  4

     Subspace diagonalization in iterative solution of the eigenvalue problem:
     a serial algorithm will be used


     G-vector sticks info
     --------------------
     sticks:   dense  smooth     PW     G-vecs:    dense   smooth      PW
     Sum         211     211     73                10895    10895    2059

     Using Slab Decomposition



     bravais-lattice index     =            4
     lattice parameter (alat)  =       8.8439  a.u.
     unit-cell volume          =    2560.0529 (a.u.)^3
     number of atoms/cell      =            2
     number of atomic types    =            1
     number of electrons       =        28.00
     number of Kohn-Sham states=           18
     kinetic-energy cutoff     =      10.0000  Ry
     charge density cutoff     =      40.0000  Ry
     scf convergence threshold =      1.0E-06
     mixing beta               =       0.7000
     number of iterations used =            8  plain     mixing
     Exchange-correlation= SLA  PW   PBE  PBE
                           (   1   4   3   4   0   0   0)

     celldm(1)=   8.843918  celldm(2)=   0.000000  celldm(3)=   4.273504
     celldm(4)=   0.000000  celldm(5)=   0.000000  celldm(6)=   0.000000

     crystal axes: (cart. coord. in units of alat)
               a(1) = (   1.000000   0.000000   0.000000 )  
               a(2) = (  -0.500000   0.866025   0.000000 )  
               a(3) = (   0.000000   0.000000   4.273504 )  

     reciprocal axes: (cart. coord. in units 2 pi/alat)
               b(1) = (  1.000000  0.577350 -0.000000 )  
               b(2) = (  0.000000  1.154701  0.000000 )  
               b(3) = (  0.000000 -0.000000  0.234000 )  


     PseudoPot. # 1 for Sn read from file:
     ../pseudo/Sn_pbe_v1.uspp.F.UPF
     MD5 check sum: 4cf58ce39ec5d5d420df3dd08604eb00
     Pseudo is Ultrasoft + core correction, Zval = 14.0
     Generated by new atomic code, or converted to UPF format
     Using radial grid of  891 points,  6 beta functions with: 
                l(1) =   0
                l(2) =   0
                l(3) =   1
                l(4) =   1
                l(5) =   2
                l(6) =   2
     Q(r) pseudized with  6 coefficients,  rinner =    1.200   1.200   1.200
                                                       1.200   1.200

     atomic species   valence    mass     pseudopotential
        Sn            14.00   118.71000     Sn( 1.00)

     24 Sym. Ops., with inversion, found



   Cartesian axes

     site n.     atom                  positions (alat units)
         1           Sn  tau(   1) = (   0.0000000   0.5773503   2.1367521  )
         2           Sn  tau(   2) = (   0.5000000   0.2886751   2.1367521  )

     number of k points=    61  Methfessel-Paxton smearing, width (Ry)=  0.0200
                       cart. coord. in units 2pi/alat
        k(    1) = (   0.0000000   0.0000000   0.0000000), wk =   0.0034722
        k(    2) = (   0.0000000   0.0481125   0.0000000), wk =   0.0208333
        k(    3) = (   0.0000000   0.0962250   0.0000000), wk =   0.0208333
        k(    4) = (   0.0000000   0.1443376   0.0000000), wk =   0.0208333
        k(    5) = (   0.0000000   0.1924501   0.0000000), wk =   0.0208333
        k(    6) = (   0.0000000   0.2405626   0.0000000), wk =   0.0208333
        k(    7) = (   0.0000000   0.2886751   0.0000000), wk =   0.0208333
        k(    8) = (   0.0000000   0.3367877   0.0000000), wk =   0.0208333
        k(    9) = (   0.0000000   0.3849002   0.0000000), wk =   0.0208333
        k(   10) = (   0.0000000   0.4330127   0.0000000), wk =   0.0208333
        k(   11) = (   0.0000000   0.4811252   0.0000000), wk =   0.0208333
        k(   12) = (   0.0000000   0.5292377   0.0000000), wk =   0.0208333
        k(   13) = (   0.0000000  -0.5773503   0.0000000), wk =   0.0104167
        k(   14) = (   0.0416667   0.0721688   0.0000000), wk =   0.0208333
        k(   15) = (   0.0416667   0.1202813   0.0000000), wk =   0.0416667
        k(   16) = (   0.0416667   0.1683938   0.0000000), wk =   0.0416667
        k(   17) = (   0.0416667   0.2165064   0.0000000), wk =   0.0416667
        k(   18) = (   0.0416667   0.2646189   0.0000000), wk =   0.0416667
        k(   19) = (   0.0416667   0.3127314   0.0000000), wk =   0.0416667
        k(   20) = (   0.0416667   0.3608439   0.0000000), wk =   0.0416667
        k(   21) = (   0.0416667   0.4089564   0.0000000), wk =   0.0416667
        k(   22) = (   0.0416667   0.4570690   0.0000000), wk =   0.0416667
        k(   23) = (   0.0416667   0.5051815   0.0000000), wk =   0.0416667
        k(   24) = (   0.0416667   0.5532940   0.0000000), wk =   0.0416667
        k(   25) = (   0.0833333   0.1443376   0.0000000), wk =   0.0208333
        k(   26) = (   0.0833333   0.1924501   0.0000000), wk =   0.0416667
        k(   27) = (   0.0833333   0.2405626   0.0000000), wk =   0.0416667
        k(   28) = (   0.0833333   0.2886751   0.0000000), wk =   0.0416667
        k(   29) = (   0.0833333   0.3367877   0.0000000), wk =   0.0416667
        k(   30) = (   0.0833333   0.3849002   0.0000000), wk =   0.0416667
        k(   31) = (   0.0833333   0.4330127   0.0000000), wk =   0.0416667
        k(   32) = (   0.0833333   0.4811252   0.0000000), wk =   0.0416667
        k(   33) = (   0.0833333   0.5292377   0.0000000), wk =   0.0416667
        k(   34) = (   0.0833333   0.5773503   0.0000000), wk =   0.0208333
        k(   35) = (   0.1250000   0.2165064   0.0000000), wk =   0.0208333
        k(   36) = (   0.1250000   0.2646189   0.0000000), wk =   0.0416667
        k(   37) = (   0.1250000   0.3127314   0.0000000), wk =   0.0416667
        k(   38) = (   0.1250000   0.3608439   0.0000000), wk =   0.0416667
        k(   39) = (   0.1250000   0.4089564   0.0000000), wk =   0.0416667
        k(   40) = (   0.1250000   0.4570690   0.0000000), wk =   0.0416667
        k(   41) = (   0.1250000   0.5051815   0.0000000), wk =   0.0416667
        k(   42) = (   0.1250000   0.5532940   0.0000000), wk =   0.0416667
        k(   43) = (   0.1666667   0.2886751   0.0000000), wk =   0.0208333
        k(   44) = (   0.1666667   0.3367877   0.0000000), wk =   0.0416667
        k(   45) = (   0.1666667   0.3849002   0.0000000), wk =   0.0416667
        k(   46) = (   0.1666667   0.4330127   0.0000000), wk =   0.0416667
        k(   47) = (   0.1666667   0.4811252   0.0000000), wk =   0.0416667
        k(   48) = (   0.1666667   0.5292377   0.0000000), wk =   0.0416667
        k(   49) = (   0.1666667   0.5773503   0.0000000), wk =   0.0208333
        k(   50) = (   0.2083333   0.3608439   0.0000000), wk =   0.0208333
        k(   51) = (   0.2083333   0.4089564   0.0000000), wk =   0.0416667
        k(   52) = (   0.2083333   0.4570690   0.0000000), wk =   0.0416667
        k(   53) = (   0.2083333   0.5051815   0.0000000), wk =   0.0416667
        k(   54) = (   0.2083333   0.5532940   0.0000000), wk =   0.0416667
        k(   55) = (   0.2500000   0.4330127   0.0000000), wk =   0.0208333
        k(   56) = (   0.2500000   0.4811252   0.0000000), wk =   0.0416667
        k(   57) = (   0.2500000   0.5292377   0.0000000), wk =   0.0416667
        k(   58) = (   0.2500000   0.5773503   0.0000000), wk =   0.0208333
        k(   59) = (   0.2916667   0.5051815   0.0000000), wk =   0.0208333
        k(   60) = (   0.2916667   0.5532940   0.0000000), wk =   0.0416667
        k(   61) = (   0.3333333   0.5773503   0.0000000), wk =   0.0069444

     Dense  grid:    10895 G-vectors     FFT dimensions: (  18,  18,  80)

     Estimated max dynamical RAM per process >      62.10 MB

     Check: negative core charge=   -0.000693

     Initial potential from superposition of free atoms

     starting charge      25.9999, renormalised to      28.0000

     negative rho (up, down):  8.793E-01 0.000E+00
     Starting wfcs are   18 randomized atomic wfcs

     total cpu time spent up to now is        1.1 secs

     Self-consistent Calculation

     iteration #  1     ecut=    10.00 Ry     beta= 0.70
     Davidson diagonalization with overlap
     ethr =  1.00E-02,  avg # of iterations = 10.1

     negative rho (up, down):  2.388E-01 0.000E+00

     total cpu time spent up to now is        4.0 secs

     total energy              =    -303.25730090 Ry
     estimated scf accuracy    <      16.89062660 Ry

     iteration #  2     ecut=    10.00 Ry     beta= 0.70
     Davidson diagonalization with overlap
     ethr =  1.00E-02,  avg # of iterations =  5.4

     negative rho (up, down):  9.506E-03 0.000E+00

     total cpu time spent up to now is        6.4 secs

     total energy              =    -307.97048959 Ry
     estimated scf accuracy    <       6.76242259 Ry

     iteration #  3     ecut=    10.00 Ry     beta= 0.70
     Davidson diagonalization with overlap
     ethr =  1.00E-02,  avg # of iterations =  3.7

     negative rho (up, down):  6.347E-02 0.000E+00

     total cpu time spent up to now is        8.3 secs

     total energy              =    -309.95303681 Ry
     estimated scf accuracy    <       0.46788374 Ry

     iteration #  4     ecut=    10.00 Ry     beta= 0.70
     Davidson diagonalization with overlap
     ethr =  1.67E-03,  avg # of iterations =  2.3

     negative rho (up, down):  1.482E-01 0.000E+00

     total cpu time spent up to now is       10.2 secs

     total energy              =    -309.91287331 Ry
     estimated scf accuracy    <       0.10197009 Ry

     iteration #  5     ecut=    10.00 Ry     beta= 0.70
     Davidson diagonalization with overlap
     ethr =  3.64E-04,  avg # of iterations =  4.5

     negative rho (up, down):  1.576E-01 0.000E+00

     total cpu time spent up to now is       12.0 secs

     total energy              =    -309.93467412 Ry
     estimated scf accuracy    <       0.00228714 Ry

     iteration #  6     ecut=    10.00 Ry     beta= 0.70
     Davidson diagonalization with overlap
     c_bands:  1 eigenvalues not converged
     c_bands:  1 eigenvalues not converged
     ethr =  8.17E-06,  avg # of iterations =  8.1

     negative rho (up, down):  1.531E-01 0.000E+00

     total cpu time spent up to now is       14.7 secs

     total energy              =    -309.93522825 Ry
     estimated scf accuracy    <       0.00046655 Ry

     iteration #  7     ecut=    10.00 Ry     beta= 0.70
     Davidson diagonalization with overlap
     ethr =  1.67E-06,  avg # of iterations =  2.9

     negative rho (up, down):  1.506E-01 0.000E+00

     total cpu time spent up to now is       16.5 secs

     total energy              =    -309.93518681 Ry
     estimated scf accuracy    <       0.00007550 Ry

     iteration #  8     ecut=    10.00 Ry     beta= 0.70
     Davidson diagonalization with overlap
     ethr =  2.70E-07,  avg # of iterations =  2.9

     negative rho (up, down):  1.511E-01 0.000E+00

     total cpu time spent up to now is       18.1 secs

     total energy              =    -309.93521753 Ry
     estimated scf accuracy    <       0.00000789 Ry

     iteration #  9     ecut=    10.00 Ry     beta= 0.70
     Davidson diagonalization with overlap
     ethr =  2.82E-08,  avg # of iterations =  2.0

     negative rho (up, down):  1.513E-01 0.000E+00

     total cpu time spent up to now is       19.5 secs

     End of self-consistent calculation

          k = 0.0000 0.0000 0.0000 (  1377 PWs)   bands (ev):

   -28.2174 -28.2174 -27.1351 -25.6185 -24.8850 -24.8850 -24.7950 -24.7950
   -24.6490 -24.6490 -15.1939  -9.2466  -5.7692  -5.1045  -5.1045  -1.5530
    -0.6426  -0.6426

          k = 0.0000 0.0481 0.0000 (  1395 PWs)   bands (ev):

   -28.4375 -28.2635 -27.5677 -25.8094 -25.8062 -25.4238 -25.3236 -25.2986
   -25.2551 -24.9777 -15.1958  -9.3080  -5.7622  -5.1310  -5.0698  -1.5641
    -0.6900  -0.6079

          k = 0.0000 0.0962 0.0000 (  1399 PWs)   bands (ev):

   -28.5583 -28.4894 -27.6406 -25.8900 -25.8088 -25.6854 -25.6012 -25.3235
   -25.0466 -25.0084 -15.1583  -9.4764  -5.7200  -5.2171  -4.9415  -1.5980
    -0.7480  -0.4387

          k = 0.0000 0.1443 0.0000 (  1397 PWs)   bands (ev):

   -28.6189 -28.4614 -27.7037 -26.0824 -25.6732 -25.5948 -25.4113 -25.3599
   -25.0525 -24.5591 -15.0915  -9.7287  -5.6473  -5.3280  -4.7675  -1.6350
    -0.7483  -0.4327

          k = 0.0000 0.1925 0.0000 (  1392 PWs)   bands (ev):

   -28.4212 -28.2345 -27.5240 -25.6954 -25.5964 -25.4915 -25.3366 -25.2647
   -24.9044 -24.6855 -14.9970 -10.0455  -5.5412  -5.4563  -4.6228  -1.6163
    -0.6852  -0.5212

          k = 0.0000 0.2406 0.0000 (  1378 PWs)   bands (ev):

   -28.3429 -28.0942 -27.1961 -25.6720 -25.5111 -24.8894 -24.8811 -24.6240
   -24.2469 -24.2410 -14.8737 -10.3890  -5.5929  -5.4099  -4.4968  -1.5280
    -0.8313  -0.5340

          k = 0.0000 0.2887 0.0000 (  1370 PWs)   bands (ev):

   -28.3606 -27.8243 -27.1330 -25.7055 -25.5476 -24.8025 -24.5636 -24.3421
   -23.9836 -23.4695 -14.7324 -10.7502  -5.7357  -5.2542  -4.4291  -1.3477
    -1.1711  -0.3425

          k = 0.0000 0.3368 0.0000 (  1358 PWs)   bands (ev):

   -28.1603 -27.0972 -27.0117 -25.2692 -25.2307 -25.1085 -24.9162 -24.3955
   -23.2032 -22.5828 -14.5689 -11.1104  -5.8666  -5.0711  -4.4113  -1.5261
    -1.0785  -0.0959

          k = 0.0000 0.3849 0.0000 (  1368 PWs)   bands (ev):

   -28.2610 -27.3495 -27.0821 -25.7226 -25.5794 -25.2591 -25.1385 -24.8737
   -23.2205 -22.6966 -14.3975 -11.4643  -6.0033  -4.8811  -4.4283  -1.8927
    -0.7925   0.1688

          k = 0.0000 0.4330 0.0000 (  1358 PWs)   bands (ev):

   -28.1576 -26.9876 -26.8924 -25.5147 -25.4535 -25.1117 -25.0214 -24.5254
   -23.4181 -21.6614 -14.2133 -11.7879  -6.1036  -4.6746  -4.4589  -2.2251
    -0.4536   0.4877

          k = 0.0000 0.4811 0.0000 (  1356 PWs)   bands (ev):

   -27.8801 -26.8375 -26.6841 -25.5794 -25.5370 -25.3849 -25.3230 -24.4423
   -22.9592 -21.7556 -14.0330 -12.0663  -6.1763  -4.4850  -4.4628  -2.5179
    -0.1120   0.8302

          k = 0.0000 0.5292 0.0000 (  1350 PWs)   bands (ev):

   -27.8466 -26.6245 -25.9633 -25.9498 -25.4874 -25.3368 -25.0962 -24.6123
   -22.2861 -21.9163 -13.8867 -12.2686  -6.2279  -4.4930  -4.3081  -2.7286
     0.2161   1.0563

          k = 0.0000-0.5774 0.0000 (  1348 PWs)   bands (ev):

   -27.4067 -26.5309 -26.2024 -25.9715 -25.5927 -25.5879 -25.1856 -24.3440
   -22.0686 -21.7229 -13.8279 -12.3390  -6.2342  -4.4989  -4.2456  -2.8165
     0.3765   1.0492

          k = 0.0417 0.0722 0.0000 (  1395 PWs)   bands (ev):

   -28.2929 -28.2052 -27.7928 -25.7987 -25.7544 -25.7541 -25.3361 -25.2423
   -25.0262 -24.9097 -15.1741  -9.4211  -5.7341  -5.1903  -4.9759  -1.5845
    -0.7432  -0.4777

          k = 0.0417 0.1203 0.0000 (  1399 PWs)   bands (ev):

   -28.5169 -28.3569 -27.8008 -25.9834 -25.6802 -25.6178 -25.5329 -25.4297
   -25.1910 -24.9092 -15.1228  -9.6309  -5.6779  -5.2943  -4.8199  -1.6251
    -0.7631  -0.4626

          k = 0.0417 0.1684 0.0000 (  1390 PWs)   bands (ev):

   -28.3781 -28.1104 -27.7610 -25.8145 -25.4984 -25.3671 -25.3145 -25.2035
   -24.7192 -24.5966 -15.0408  -9.9100  -5.5873  -5.4240  -4.6352  -1.6394
    -0.7238  -0.3731

          k = 0.0417 0.2165 0.0000 (  1386 PWs)   bands (ev):

   -28.1702 -28.0801 -27.3850 -25.7225 -25.5236 -25.2743 -25.2272 -25.1062
   -24.6236 -24.5911 -14.9316 -10.2389  -5.5696  -5.4698  -4.4859  -1.6008
    -0.6967  -0.6230

          k = 0.0417 0.2646 0.0000 (  1378 PWs)   bands (ev):

   -28.2424 -27.8694 -27.4294 -25.6877 -25.4489 -25.0730 -25.0224 -24.9441
   -24.1585 -23.8442 -14.8002 -10.5900  -5.7240  -5.3245  -4.3757  -1.4721
    -1.0236  -0.4602

          k = 0.0417 0.3127 0.0000 (  1365 PWs)   bands (ev):

   -28.1590 -27.5971 -27.3149 -25.7234 -25.2857 -24.9179 -24.7781 -24.5599
   -23.2915 -22.9172 -14.6451 -10.9507  -5.8759  -5.1592  -4.3179  -1.3604
    -1.2599  -0.2497

          k = 0.0417 0.3608 0.0000 (  1367 PWs)   bands (ev):

   -28.1315 -27.3859 -27.1574 -25.7471 -25.6680 -25.3174 -24.8670 -24.7473
   -23.4246 -22.6207 -14.4781 -11.3065  -6.0105  -4.9723  -4.3209  -1.7322
    -0.9820  -0.0017

          k = 0.0417 0.4090 0.0000 (  1368 PWs)   bands (ev):

   -28.1514 -27.2637 -27.1103 -26.0462 -25.8535 -25.4610 -25.0133 -24.7298
   -23.5765 -22.0851 -14.2989 -11.6440  -6.1315  -4.7683  -4.3434  -2.0785
    -0.6571   0.2938

          k = 0.0417 0.4571 0.0000 (  1356 PWs)   bands (ev):

   -27.9303 -26.9653 -26.7455 -25.6799 -25.4986 -25.4549 -24.9152 -24.5013
   -23.0803 -21.6369 -14.1097 -11.9449  -6.2162  -4.5540  -4.3544  -2.3850
    -0.3029   0.6267

          k = 0.0417 0.5052 0.0000 (  1353 PWs)   bands (ev):

   -27.7864 -26.7393 -26.4525 -25.6158 -25.4472 -25.3362 -25.1916 -24.5757
   -22.6604 -22.0027 -13.9423 -12.1929  -6.2872  -4.3739  -4.3659  -2.6425
     0.0372   0.9278

          k = 0.0417 0.5533 0.0000 (  1346 PWs)   bands (ev):

   -27.7504 -26.6181 -25.9113 -25.7552 -25.4781 -25.1475 -25.0702 -24.4476
   -22.2332 -21.7600 -13.8351 -12.3334  -6.3100  -4.3825  -4.2477  -2.7999
     0.3058   1.0642

          k = 0.0833 0.1443 0.0000 (  1397 PWs)   bands (ev):

   -28.5106 -28.2750 -27.7700 -25.9049 -25.7330 -25.6369 -25.5727 -25.4132
   -24.9329 -24.7566 -15.0554  -9.8669  -5.6041  -5.4227  -4.6355  -1.6566
    -0.7514  -0.3869

          k = 0.0833 0.1925 0.0000 (  1382 PWs)   bands (ev):

   -28.2715 -27.9888 -27.8188 -25.6415 -25.4518 -25.1593 -24.9176 -24.8167
   -24.6018 -24.0087 -14.9598 -10.1564  -5.5859  -5.4980  -4.4312  -1.6556
    -0.6775  -0.6251

          k = 0.0833 0.2406 0.0000 (  1383 PWs)   bands (ev):

   -28.1964 -27.8628 -27.4307 -25.6171 -25.3805 -25.1800 -25.1613 -24.9200
   -24.7857 -24.2963 -14.8397 -10.4906  -5.7711  -5.3665  -4.2726  -1.5931
    -0.9227  -0.5580

          k = 0.0833 0.2887 0.0000 (  1380 PWs)   bands (ev):

   -28.2406 -27.9081 -27.4438 -25.6841 -25.6017 -25.2849 -25.0125 -24.8902
   -24.5198 -23.5243 -14.6991 -10.8394  -5.9477  -5.2149  -4.1479  -1.4561
    -1.2488  -0.3868

          k = 0.0833 0.3368 0.0000 (  1372 PWs)   bands (ev):

   -28.0708 -27.6301 -27.3053 -25.8409 -25.5629 -25.3231 -25.0608 -25.0339
   -23.6845 -22.8511 -14.5358 -11.1898  -6.1064  -5.0362  -4.0881  -1.5952
    -1.2163  -0.1676

          k = 0.0833 0.3849 0.0000 (  1370 PWs)   bands (ev):

   -27.9796 -27.3681 -27.1430 -25.9857 -25.8663 -25.6672 -25.1514 -24.8200
   -23.2245 -22.6451 -14.3601 -11.5252  -6.2404  -4.8433  -4.0661  -1.9425
    -0.9108   0.0964

          k = 0.0833 0.4330 0.0000 (  1362 PWs)   bands (ev):

   -27.8773 -27.1233 -26.9211 -25.6906 -25.6078 -25.2763 -25.0855 -24.6000
   -23.3323 -22.4269 -14.1733 -11.8406  -6.3524  -4.6306  -4.0683  -2.2624
    -0.5637   0.3922

          k = 0.0833 0.4811 0.0000 (  1348 PWs)   bands (ev):

   -27.9469 -26.6968 -26.3283 -25.6441 -25.3530 -25.2287 -24.9664 -24.1284
   -23.0575 -21.2661 -13.9903 -12.1132  -6.4271  -4.4251  -4.0705  -2.5515
    -0.2013   0.7049

          k = 0.0833 0.5292 0.0000 (  1346 PWs)   bands (ev):

   -27.8739 -26.4347 -26.2384 -25.7342 -25.5778 -25.2149 -24.9935 -24.0795
   -22.7572 -21.2974 -13.8470 -12.3106  -6.4740  -4.2631  -4.0776  -2.7621
     0.1043   0.9686

          k = 0.0833 0.5774 0.0000 (  1342 PWs)   bands (ev):

   -27.6879 -26.5253 -25.9231 -25.8613 -25.2612 -25.1862 -24.9584 -24.2151
   -22.0024 -21.6458 -13.7820 -12.3899  -6.4951  -4.1944  -4.0755  -2.8439
     0.2682   1.0879

          k = 0.1250 0.2165 0.0000 (  1385 PWs)   bands (ev):

   -28.3795 -27.8806 -27.3761 -25.7780 -25.5392 -25.3357 -25.1096 -24.9342
   -24.8663 -24.0676 -14.8513 -10.4574  -5.7969  -5.3816  -4.2143  -1.6489
    -0.8865  -0.5982

          k = 0.1250 0.2646 0.0000 (  1387 PWs)   bands (ev):

   -28.4105 -27.9633 -27.4722 -26.1365 -25.7100 -25.5409 -25.3019 -25.0300
   -24.5324 -23.6644 -14.7258 -10.7794  -6.0004  -5.2444  -4.0113  -1.5972
    -1.1840  -0.4599

          k = 0.1250 0.3127 0.0000 (  1377 PWs)   bands (ev):

   -28.3839 -27.6420 -27.3833 -26.1420 -25.7221 -25.4927 -25.2000 -24.7290
   -23.8689 -22.8533 -14.5734 -11.1090  -6.1857  -5.0809  -3.8492  -1.5028
    -1.4469  -0.2737

          k = 0.1250 0.3608 0.0000 (  1372 PWs)   bands (ev):

   -27.9220 -27.6564 -27.1901 -26.0333 -25.7455 -25.5180 -24.9962 -24.9507
   -23.5660 -22.8011 -14.4023 -11.4427  -6.3553  -4.8890  -3.7631  -1.8359
    -1.1940  -0.0483

          k = 0.1250 0.4090 0.0000 (  1362 PWs)   bands (ev):

   -27.7784 -27.1046 -26.9363 -25.7842 -25.5580 -25.2705 -24.9786 -24.6405
   -23.2966 -22.6811 -14.2168 -11.7594  -6.4912  -4.6797  -3.7122  -2.1583
    -0.8713   0.2158

          k = 0.1250 0.4571 0.0000 (  1351 PWs)   bands (ev):

   -27.7070 -26.9850 -26.3724 -25.7407 -25.3422 -25.1410 -24.9783 -24.2275
   -22.8476 -22.1194 -14.0231 -12.0469  -6.5951  -4.4704  -3.6811  -2.4577
    -0.5141   0.5039

          k = 0.1250 0.5052 0.0000 (  1347 PWs)   bands (ev):

   -27.7392 -26.4874 -26.3495 -25.4768 -25.4122 -25.3215 -25.0979 -24.0070
   -23.1633 -21.4815 -13.8592 -12.2861  -6.6676  -4.2837  -3.6767  -2.7118
    -0.1953   0.7851

          k = 0.1250 0.5533 0.0000 (  1343 PWs)   bands (ev):

   -27.6652 -26.3973 -26.0937 -25.7501 -25.6515 -25.2733 -25.0678 -23.7433
   -22.8760 -21.0889 -13.7479 -12.4278  -6.6981  -4.1583  -3.6728  -2.8678
     0.0342   1.0043

          k = 0.1667 0.2887 0.0000 (  1373 PWs)   bands (ev):

   -28.0563 -27.5948 -27.2570 -25.6756 -25.4399 -25.4357 -25.2658 -24.8243
   -23.9323 -23.0267 -14.5846 -11.0855  -6.2193  -5.0884  -3.7601  -1.5314
    -1.4768  -0.3073

          k = 0.1667 0.3368 0.0000 (  1374 PWs)   bands (ev):

   -28.0182 -27.6228 -27.1915 -25.8966 -25.7531 -25.5512 -25.4099 -24.9116
   -23.6545 -22.9217 -14.4238 -11.3969  -6.4232  -4.9137  -3.5425  -1.7813
    -1.4060  -0.1162

          k = 0.1667 0.3849 0.0000 (  1370 PWs)   bands (ev):

   -27.8144 -27.4234 -27.0461 -25.9676 -25.7810 -25.4808 -25.2404 -24.8703
   -23.4799 -23.0074 -14.2415 -11.7074  -6.5951  -4.7121  -3.3966  -2.0954
    -1.1789   0.1113

          k = 0.1667 0.4330 0.0000 (  1356 PWs)   bands (ev):

   -27.6949 -27.0056 -26.4520 -25.9832 -25.4591 -25.3463 -25.1928 -24.2813
   -23.1235 -22.3297 -14.0487 -11.9995  -6.7288  -4.5071  -3.3003  -2.3915
    -0.8827   0.3695

          k = 0.1667 0.4811 0.0000 (  1354 PWs)   bands (ev):

   -27.8424 -26.9486 -26.4340 -25.8681 -25.4214 -25.3766 -25.1231 -24.1888
   -23.0490 -22.1086 -13.8663 -12.2606  -6.8272  -4.3028  -3.2459  -2.6588
    -0.5777   0.6451

          k = 0.1667 0.5292 0.0000 (  1350 PWs)   bands (ev):

   -27.7791 -26.5696 -26.5249 -25.7462 -25.5045 -25.2560 -25.0623 -23.9517
   -23.1921 -21.7729 -13.7171 -12.4589  -6.8865  -4.1304  -3.2301  -2.8693
    -0.3115   0.8541

          k = 0.1667 0.5774 0.0000 (  1350 PWs)   bands (ev):

   -27.8635 -26.6313 -26.2039 -25.8930 -25.5216 -25.2608 -25.1843 -23.9708
   -23.2728 -21.5263 -13.6531 -12.5419  -6.9088  -4.0580  -3.2177  -2.9513
    -0.2051   0.8620

          k = 0.2083 0.3608 0.0000 (  1367 PWs)   bands (ev):

   -27.9234 -27.4995 -26.9325 -25.8469 -25.6778 -25.3809 -25.3001 -24.7555
   -23.2021 -22.9721 -14.2489 -11.6868  -6.6290  -4.7217  -3.2581  -2.0694
    -1.3158   0.0816

          k = 0.2083 0.4090 0.0000 (  1358 PWs)   bands (ev):

   -27.5273 -27.2845 -26.3983 -25.7053 -25.6747 -25.3043 -25.2266 -24.5845
   -23.0909 -22.6336 -14.0623 -11.9728  -6.7994  -4.5234  -3.0272  -2.3461
    -1.1514   0.3083

          k = 0.2083 0.4571 0.0000 (  1358 PWs)   bands (ev):

   -27.3595 -27.0356 -26.6125 -25.9210 -25.6642 -25.5727 -25.0299 -24.4515
   -23.0684 -22.7385 -13.8728 -12.2454  -6.9352  -4.3152  -2.8726  -2.6215
    -0.9356   0.5639

          k = 0.2083 0.5052 0.0000 (  1356 PWs)   bands (ev):

   -27.4434 -26.6938 -26.6146 -25.9622 -25.5887 -25.4222 -25.1666 -24.2038
   -23.2456 -22.6030 -13.6971 -12.4780  -7.0239  -4.1177  -2.8635  -2.7915
    -0.7051   0.7307

          k = 0.2083 0.5533 0.0000 (  1351 PWs)   bands (ev):

   -27.4564 -26.5965 -26.3231 -25.8098 -25.4808 -25.2667 -25.1300 -23.8962
   -23.6336 -21.9785 -13.5727 -12.6284  -7.0691  -3.9719  -3.0194  -2.7532
    -0.5300   0.7237

          k = 0.2500 0.4330 0.0000 (  1354 PWs)   bands (ev):

   -27.4460 -27.1559 -26.4313 -25.7260 -25.5045 -25.0200 -24.9289 -24.3584
   -22.9966 -22.9056 -13.8753 -12.2375  -6.9673  -4.3210  -2.6993  -2.6003
    -1.1096   0.5380

          k = 0.2500 0.4811 0.0000 (  1354 PWs)   bands (ev):

   -27.3085 -26.9760 -26.4660 -25.9251 -25.6056 -25.2092 -24.8465 -24.3185
   -22.9853 -22.8400 -13.6814 -12.4846  -7.0908  -4.1092  -2.8515  -2.4553
    -1.0118   0.6641

          k = 0.2500 0.5292 0.0000 (  1357 PWs)   bands (ev):

   -27.3834 -26.7683 -26.5645 -26.0141 -25.7396 -25.4045 -24.9272 -24.2392
   -23.4012 -22.6793 -13.5138 -12.6936  -7.1703  -3.9183  -3.0685  -2.3215
    -0.9049   0.6257

          k = 0.2500 0.5774 0.0000 (  1362 PWs)   bands (ev):

   -27.5043 -26.7503 -26.5459 -26.0566 -25.3918 -25.2716 -25.1145 -24.2361
   -23.8999 -23.5575 -13.4286 -12.7915  -7.2009  -3.8245  -3.1637  -2.2872
    -0.8551   0.6110

          k = 0.2917 0.5052 0.0000 (  1366 PWs)   bands (ev):

   -27.4355 -27.0392 -26.7699 -26.0565 -25.9227 -25.6589 -25.6446 -24.3593
   -23.4224 -23.0962 -13.4941 -12.7205  -7.2064  -3.8992  -3.0946  -2.1134
    -1.1063   0.5851

          k = 0.2917 0.5533 0.0000 (  1368 PWs)   bands (ev):

   -27.3681 -26.9379 -26.7748 -25.9684 -25.8132 -25.4635 -25.2366 -24.2070
   -24.1724 -23.8665 -13.3241 -12.9118  -7.2667  -3.7130  -3.2824  -1.8965
    -1.1759   0.5433

          k = 0.3333 0.5774 0.0000 (  1368 PWs)   bands (ev):

   -27.1195 -27.1195 -26.6243 -25.7152 -25.6867 -25.6867 -25.6386 -24.1380
   -24.0390 -24.0390 -13.1179 -13.1179  -7.2948  -3.5035  -3.5035  -1.5112
    -1.5112   0.5159

     the Fermi energy is    -4.3380 ev

!    total energy              =    -309.93522323 Ry
     estimated scf accuracy    <       0.00000015 Ry
     smearing contrib. (-TS)   =      -0.00121446 Ry
     internal energy E=F+TS    =    -309.93400877 Ry

     The total energy is F=E-TS. E is the sum of the following terms:
     one-electron contribution =    -850.70932907 Ry
     hartree contribution      =     428.16245272 Ry
     xc contribution           =     -90.36543620 Ry
     ewald contribution        =     202.97830378 Ry

     convergence has been achieved in   9 iterations

     Writing all to output data dir ../tmp/stanene.save/

     init_run     :      2.52s CPU      1.01s WALL (       1 calls)
     electrons    :     61.38s CPU     18.47s WALL (       1 calls)

     Called by init_run:
     wfcinit      :      2.22s CPU      0.71s WALL (       1 calls)
     potinit      :      0.01s CPU      0.01s WALL (       1 calls)
     hinit0       :      0.25s CPU      0.26s WALL (       1 calls)

     Called by electrons:
     c_bands      :     52.86s CPU     15.85s WALL (       9 calls)
     sum_band     :      7.74s CPU      2.37s WALL (       9 calls)
     v_of_rho     :      0.23s CPU      0.08s WALL (      10 calls)
     newd         :      0.54s CPU      0.17s WALL (      10 calls)
     mix_rho      :      0.03s CPU      0.01s WALL (       9 calls)

     Called by c_bands:
     init_us_2    :      1.29s CPU      0.36s WALL (    1159 calls)
     init_us_2:cp :      1.29s CPU      0.36s WALL (    1159 calls)
     cegterg      :     49.24s CPU     14.85s WALL (     549 calls)

     Called by *egterg:
     cdiaghg      :      3.21s CPU      0.90s WALL (    3095 calls)
     h_psi        :     42.47s CPU     12.85s WALL (    3156 calls)
     s_psi        :      0.81s CPU      0.24s WALL (    3156 calls)
     g_psi        :      0.28s CPU      0.09s WALL (    2546 calls)

     Called by h_psi:
     h_psi:calbec :      3.79s CPU      1.67s WALL (    3156 calls)
     vloc_psi     :     37.36s CPU     10.83s WALL (    3156 calls)
     add_vuspsi   :      1.11s CPU      0.30s WALL (    3156 calls)

     General routines
     calbec       :      4.42s CPU      1.92s WALL (    3705 calls)
     fft          :      0.27s CPU      0.22s WALL (     110 calls)
     ffts         :      0.01s CPU      0.00s WALL (       9 calls)
     fftw         :     37.58s CPU     10.94s WALL (   67800 calls)

     Parallel routines

     PWSCF        :   1m 4.10s CPU     19.61s WALL


   This run was terminated on:  19: 6:34  19Jun2024            

=------------------------------------------------------------------------------=
   JOB DONE.
=------------------------------------------------------------------------------=
