### Running on host: handarmsi

     Program PWSCF v.7.2 starts on 19Jun2024 at 19:14:30 

     This program is part of the open-source Quantum ESPRESSO suite
     for quantum simulation of materials; please cite
         "P. Giannozzi et al., J. Phys.:Condens. Matter 21 395502 (2009);
         "P. Giannozzi et al., J. Phys.:Condens. Matter 29 465901 (2017);
         "P. Giannozzi et al., J. Chem. Phys. 152 154105 (2020);
          URL http://www.quantum-espresso.org", 
     in publications or presentations arising from this work. More details at
     http://www.quantum-espresso.org/quote

     Parallel version (MPI), running on     1 processors

     MPI processes distributed on     1 nodes
     5795 MiB available memory on the printing compute node when the environment starts

     Reading input from sn_scf_ecutwfc-50.in

     Current dimensions of program PWSCF are:
     Max number of different atomic species (ntypx) = 10
     Max number of k-points (npk) =  40000
     Max angular momentum in pseudopotentials (lmaxx) =  4

     Subspace diagonalization in iterative solution of the eigenvalue problem:
     a serial algorithm will be used


     G-vector sticks info
     --------------------
     sticks:   dense  smooth     PW     G-vecs:    dense   smooth      PW
     Sum        1069    1069    313               122211   122211   18619

     Using Slab Decomposition



     bravais-lattice index     =            4
     lattice parameter (alat)  =       8.8439  a.u.
     unit-cell volume          =    2560.0529 (a.u.)^3
     number of atoms/cell      =            2
     number of atomic types    =            1
     number of electrons       =        28.00
     number of Kohn-Sham states=           18
     kinetic-energy cutoff     =      50.0000  Ry
     charge density cutoff     =     200.0000  Ry
     scf convergence threshold =      1.0E-06
     mixing beta               =       0.7000
     number of iterations used =            8  plain     mixing
     Exchange-correlation= SLA  PW   PBE  PBE
                           (   1   4   3   4   0   0   0)

     celldm(1)=   8.843918  celldm(2)=   0.000000  celldm(3)=   4.273504
     celldm(4)=   0.000000  celldm(5)=   0.000000  celldm(6)=   0.000000

     crystal axes: (cart. coord. in units of alat)
               a(1) = (   1.000000   0.000000   0.000000 )  
               a(2) = (  -0.500000   0.866025   0.000000 )  
               a(3) = (   0.000000   0.000000   4.273504 )  

     reciprocal axes: (cart. coord. in units 2 pi/alat)
               b(1) = (  1.000000  0.577350 -0.000000 )  
               b(2) = (  0.000000  1.154701  0.000000 )  
               b(3) = (  0.000000 -0.000000  0.234000 )  


     PseudoPot. # 1 for Sn read from file:
     ../pseudo/Sn_pbe_v1.uspp.F.UPF
     MD5 check sum: 4cf58ce39ec5d5d420df3dd08604eb00
     Pseudo is Ultrasoft + core correction, Zval = 14.0
     Generated by new atomic code, or converted to UPF format
     Using radial grid of  891 points,  6 beta functions with: 
                l(1) =   0
                l(2) =   0
                l(3) =   1
                l(4) =   1
                l(5) =   2
                l(6) =   2
     Q(r) pseudized with  6 coefficients,  rinner =    1.200   1.200   1.200
                                                       1.200   1.200

     atomic species   valence    mass     pseudopotential
        Sn            14.00   118.71000     Sn( 1.00)

     24 Sym. Ops., with inversion, found



   Cartesian axes

     site n.     atom                  positions (alat units)
         1           Sn  tau(   1) = (   0.0000000   0.5773503   2.1367521  )
         2           Sn  tau(   2) = (   0.5000000   0.2886751   2.1367521  )

     number of k points=    61  Methfessel-Paxton smearing, width (Ry)=  0.0200
                       cart. coord. in units 2pi/alat
        k(    1) = (   0.0000000   0.0000000   0.0000000), wk =   0.0034722
        k(    2) = (   0.0000000   0.0481125   0.0000000), wk =   0.0208333
        k(    3) = (   0.0000000   0.0962250   0.0000000), wk =   0.0208333
        k(    4) = (   0.0000000   0.1443376   0.0000000), wk =   0.0208333
        k(    5) = (   0.0000000   0.1924501   0.0000000), wk =   0.0208333
        k(    6) = (   0.0000000   0.2405626   0.0000000), wk =   0.0208333
        k(    7) = (   0.0000000   0.2886751   0.0000000), wk =   0.0208333
        k(    8) = (   0.0000000   0.3367877   0.0000000), wk =   0.0208333
        k(    9) = (   0.0000000   0.3849002   0.0000000), wk =   0.0208333
        k(   10) = (   0.0000000   0.4330127   0.0000000), wk =   0.0208333
        k(   11) = (   0.0000000   0.4811252   0.0000000), wk =   0.0208333
        k(   12) = (   0.0000000   0.5292377   0.0000000), wk =   0.0208333
        k(   13) = (   0.0000000  -0.5773503   0.0000000), wk =   0.0104167
        k(   14) = (   0.0416667   0.0721688   0.0000000), wk =   0.0208333
        k(   15) = (   0.0416667   0.1202813   0.0000000), wk =   0.0416667
        k(   16) = (   0.0416667   0.1683938   0.0000000), wk =   0.0416667
        k(   17) = (   0.0416667   0.2165064   0.0000000), wk =   0.0416667
        k(   18) = (   0.0416667   0.2646189   0.0000000), wk =   0.0416667
        k(   19) = (   0.0416667   0.3127314   0.0000000), wk =   0.0416667
        k(   20) = (   0.0416667   0.3608439   0.0000000), wk =   0.0416667
        k(   21) = (   0.0416667   0.4089564   0.0000000), wk =   0.0416667
        k(   22) = (   0.0416667   0.4570690   0.0000000), wk =   0.0416667
        k(   23) = (   0.0416667   0.5051815   0.0000000), wk =   0.0416667
        k(   24) = (   0.0416667   0.5532940   0.0000000), wk =   0.0416667
        k(   25) = (   0.0833333   0.1443376   0.0000000), wk =   0.0208333
        k(   26) = (   0.0833333   0.1924501   0.0000000), wk =   0.0416667
        k(   27) = (   0.0833333   0.2405626   0.0000000), wk =   0.0416667
        k(   28) = (   0.0833333   0.2886751   0.0000000), wk =   0.0416667
        k(   29) = (   0.0833333   0.3367877   0.0000000), wk =   0.0416667
        k(   30) = (   0.0833333   0.3849002   0.0000000), wk =   0.0416667
        k(   31) = (   0.0833333   0.4330127   0.0000000), wk =   0.0416667
        k(   32) = (   0.0833333   0.4811252   0.0000000), wk =   0.0416667
        k(   33) = (   0.0833333   0.5292377   0.0000000), wk =   0.0416667
        k(   34) = (   0.0833333   0.5773503   0.0000000), wk =   0.0208333
        k(   35) = (   0.1250000   0.2165064   0.0000000), wk =   0.0208333
        k(   36) = (   0.1250000   0.2646189   0.0000000), wk =   0.0416667
        k(   37) = (   0.1250000   0.3127314   0.0000000), wk =   0.0416667
        k(   38) = (   0.1250000   0.3608439   0.0000000), wk =   0.0416667
        k(   39) = (   0.1250000   0.4089564   0.0000000), wk =   0.0416667
        k(   40) = (   0.1250000   0.4570690   0.0000000), wk =   0.0416667
        k(   41) = (   0.1250000   0.5051815   0.0000000), wk =   0.0416667
        k(   42) = (   0.1250000   0.5532940   0.0000000), wk =   0.0416667
        k(   43) = (   0.1666667   0.2886751   0.0000000), wk =   0.0208333
        k(   44) = (   0.1666667   0.3367877   0.0000000), wk =   0.0416667
        k(   45) = (   0.1666667   0.3849002   0.0000000), wk =   0.0416667
        k(   46) = (   0.1666667   0.4330127   0.0000000), wk =   0.0416667
        k(   47) = (   0.1666667   0.4811252   0.0000000), wk =   0.0416667
        k(   48) = (   0.1666667   0.5292377   0.0000000), wk =   0.0416667
        k(   49) = (   0.1666667   0.5773503   0.0000000), wk =   0.0208333
        k(   50) = (   0.2083333   0.3608439   0.0000000), wk =   0.0208333
        k(   51) = (   0.2083333   0.4089564   0.0000000), wk =   0.0416667
        k(   52) = (   0.2083333   0.4570690   0.0000000), wk =   0.0416667
        k(   53) = (   0.2083333   0.5051815   0.0000000), wk =   0.0416667
        k(   54) = (   0.2083333   0.5532940   0.0000000), wk =   0.0416667
        k(   55) = (   0.2500000   0.4330127   0.0000000), wk =   0.0208333
        k(   56) = (   0.2500000   0.4811252   0.0000000), wk =   0.0416667
        k(   57) = (   0.2500000   0.5292377   0.0000000), wk =   0.0416667
        k(   58) = (   0.2500000   0.5773503   0.0000000), wk =   0.0208333
        k(   59) = (   0.2916667   0.5051815   0.0000000), wk =   0.0208333
        k(   60) = (   0.2916667   0.5532940   0.0000000), wk =   0.0416667
        k(   61) = (   0.3333333   0.5773503   0.0000000), wk =   0.0069444

     Dense  grid:   122211 G-vectors     FFT dimensions: (  40,  40, 180)

     Estimated max dynamical RAM per process >     690.99 MB

     Initial potential from superposition of free atoms

     starting charge      25.9999, renormalised to      28.0000

     negative rho (up, down):  4.441E-03 0.000E+00
     Starting wfcs are   18 randomized atomic wfcs

     total cpu time spent up to now is       15.8 secs

     Self-consistent Calculation

     iteration #  1     ecut=    50.00 Ry     beta= 0.70
     Davidson diagonalization with overlap
     ethr =  1.00E-02,  avg # of iterations =  7.5

     negative rho (up, down):  2.607E-03 0.000E+00

     total cpu time spent up to now is      165.3 secs

     total energy              =    -325.43517788 Ry
     estimated scf accuracy    <       2.48703927 Ry

     iteration #  2     ecut=    50.00 Ry     beta= 0.70
     Davidson diagonalization with overlap
     ethr =  8.88E-03,  avg # of iterations =  2.1

     negative rho (up, down):  3.318E-03 0.000E+00

     total cpu time spent up to now is      257.3 secs

     total energy              =    -326.33308215 Ry
     estimated scf accuracy    <       0.36519201 Ry

     iteration #  3     ecut=    50.00 Ry     beta= 0.70
     Davidson diagonalization with overlap
     ethr =  1.30E-03,  avg # of iterations =  2.0

     negative rho (up, down):  3.928E-03 0.000E+00

     total cpu time spent up to now is      341.0 secs

     total energy              =    -326.38966281 Ry
     estimated scf accuracy    <       0.00530042 Ry

     iteration #  4     ecut=    50.00 Ry     beta= 0.70
     Davidson diagonalization with overlap
     ethr =  1.89E-05,  avg # of iterations =  9.1

     negative rho (up, down):  3.955E-03 0.000E+00

     total cpu time spent up to now is      464.3 secs

     total energy              =    -326.39154957 Ry
     estimated scf accuracy    <       0.00068572 Ry

     iteration #  5     ecut=    50.00 Ry     beta= 0.70
     Davidson diagonalization with overlap
     ethr =  2.45E-06,  avg # of iterations =  5.1

     negative rho (up, down):  3.949E-03 0.000E+00

     total cpu time spent up to now is      552.0 secs

     total energy              =    -326.39168801 Ry
     estimated scf accuracy    <       0.00000109 Ry

     iteration #  6     ecut=    50.00 Ry     beta= 0.70
     Davidson diagonalization with overlap
     ethr =  3.91E-09,  avg # of iterations =  4.0

     negative rho (up, down):  3.952E-03 0.000E+00

     total cpu time spent up to now is      655.3 secs

     total energy              =    -326.39168910 Ry
     estimated scf accuracy    <       0.00000115 Ry

     iteration #  7     ecut=    50.00 Ry     beta= 0.70
     Davidson diagonalization with overlap
     ethr =  3.91E-09,  avg # of iterations =  2.0

     negative rho (up, down):  3.952E-03 0.000E+00

     total cpu time spent up to now is      733.2 secs

     End of self-consistent calculation

          k = 0.0000 0.0000 0.0000 ( 15193 PWs)   bands (ev):

   -24.1185 -24.1015 -24.1015 -24.0002 -24.0002 -23.8382 -23.8382 -23.7682
   -23.7682 -23.7108 -12.2176  -4.2995  -3.6867  -3.3520  -3.3520   0.6690
     0.6690   0.9061

          k = 0.0000 0.0481 0.0000 ( 15197 PWs)   bands (ev):

   -24.1195 -24.1062 -24.1047 -24.0006 -23.9995 -23.8339 -23.8331 -23.7690
   -23.7678 -23.7106 -12.2028  -4.2841  -4.1306  -3.3857  -2.9267   0.6486
     0.7327   0.9304

          k = 0.0000 0.0962 0.0000 ( 15201 PWs)   bands (ev):

   -24.1259 -24.1188 -24.1095 -24.0017 -23.9975 -23.8224 -23.8192 -23.7713
   -23.7667 -23.7100 -12.1583  -4.7099  -4.2381  -3.4799  -2.4132   0.6218
     0.9167   0.9925

          k = 0.0000 0.1443 0.0000 ( 15219 PWs)   bands (ev):

   -24.1414 -24.1367 -24.1102 -24.0035 -23.9942 -23.8066 -23.7991 -23.7751
   -23.7649 -23.7084 -12.0845  -5.2907  -4.1619  -3.6178  -1.9779   0.6577
     1.0848   1.2040

          k = 0.0000 0.1925 0.0000 ( 15233 PWs)   bands (ev):

   -24.1613 -24.1573 -24.1087 -24.0057 -23.9897 -23.7898 -23.7802 -23.7757
   -23.7627 -23.7051 -11.9816  -5.8606  -4.0561  -3.7800  -1.6771   0.8246
     1.2113   1.4092

          k = 0.0000 0.2406 0.0000 ( 15283 PWs)   bands (ev):

   -24.1824 -24.1785 -24.1065 -24.0083 -23.9842 -23.7865 -23.7755 -23.7601
   -23.7514 -23.6986 -11.8504  -6.4130  -3.9499  -3.9220  -1.5313   1.0162
     1.1320   1.3985

          k = 0.0000 0.2887 0.0000 ( 15295 PWs)   bands (ev):

   -24.2029 -24.1989 -24.1038 -24.0111 -23.9778 -23.7936 -23.7656 -23.7574
   -23.7276 -23.6883 -11.6921  -6.9429  -4.1147  -3.7612  -1.5037   0.6087
     1.4314   1.7662

          k = 0.0000 0.3368 0.0000 ( 15253 PWs)   bands (ev):

   -24.2218 -24.2173 -24.1011 -24.0137 -23.9710 -23.8012 -23.7603 -23.7547
   -23.7056 -23.6754 -11.5088  -7.4451  -4.2654  -3.5766  -1.5392   0.2013
     1.6653   2.3171

          k = 0.0000 0.3849 0.0000 ( 15265 PWs)   bands (ev):

   -24.2381 -24.2332 -24.0985 -24.0161 -23.9640 -23.8089 -23.7580 -23.7523
   -23.6865 -23.6619 -11.3046  -7.9132  -4.3955  -3.3729  -1.5983  -0.1932
     1.9069   2.6778

          k = 0.0000 0.4330 0.0000 ( 15279 PWs)   bands (ev):

   -24.2513 -24.2460 -24.0962 -24.0182 -23.9574 -23.8162 -23.7573 -23.7503
   -23.6709 -23.6499 -11.0873  -8.3375  -4.5005  -3.1584  -1.6583  -0.5607
     2.1720   2.9203

          k = 0.0000 0.4811 0.0000 ( 15298 PWs)   bands (ev):

   -24.2611 -24.2554 -24.0945 -24.0197 -23.9518 -23.8222 -23.7574 -23.7488
   -23.6594 -23.6405 -10.8738  -8.6998  -4.5775  -2.9502  -1.7071  -0.8806
     2.4621   3.1700

          k = 0.0000 0.5292 0.0000 ( 15314 PWs)   bands (ev):

   -24.2670 -24.2612 -24.0933 -24.0207 -23.9481 -23.8263 -23.7576 -23.7478
   -23.6523 -23.6346 -10.7001  -8.9632  -4.6244  -2.7830  -1.7385  -1.1157
     2.7718   3.3902

          k = 0.0000-0.5774 0.0000 ( 15320 PWs)   bands (ev):

   -24.2691 -24.2631 -24.0930 -24.0210 -23.9467 -23.8277 -23.7577 -23.7475
   -23.6499 -23.6326 -10.6286  -9.0647  -4.6402  -2.7148  -1.7492  -1.2066
     3.0112   3.2598

          k = 0.0417 0.0722 0.0000 ( 15198 PWs)   bands (ev):

   -24.1240 -24.1114 -24.1112 -24.0013 -23.9981 -23.8261 -23.8236 -23.7705
   -23.7670 -23.7102 -12.1731  -4.5527  -4.2535  -3.4534  -2.5419   0.6171
     0.8648   0.9724

          k = 0.0417 0.1203 0.0000 ( 15209 PWs)   bands (ev):

   -24.1387 -24.1243 -24.1125 -24.0028 -23.9954 -23.8124 -23.8068 -23.7736
   -23.7656 -23.7091 -12.1140  -5.0828  -4.1923  -3.5781  -2.1015   0.5982
     1.0463   1.1216

          k = 0.0417 0.1684 0.0000 ( 15244 PWs)   bands (ev):

   -24.1591 -24.1414 -24.1112 -24.0049 -23.9915 -23.7960 -23.7856 -23.7782
   -23.7635 -23.7065 -12.0256  -5.6326  -4.1013  -3.7381  -1.7332   0.6642
     1.1504   1.4786

          k = 0.0417 0.2165 0.0000 ( 15258 PWs)   bands (ev):

   -24.1813 -24.1604 -24.1090 -24.0074 -23.9864 -23.7839 -23.7803 -23.7628
   -23.7611 -23.7011 -11.9085  -6.1783  -3.9813  -3.9135  -1.5006   0.8756
     1.1867   1.2898

          k = 0.0417 0.2646 0.0000 ( 15280 PWs)   bands (ev):

   -24.2035 -24.1794 -24.1064 -24.0101 -23.9804 -23.7907 -23.7683 -23.7584
   -23.7402 -23.6917 -11.7636  -6.7094  -4.0888  -3.8337  -1.4088   0.7906
     1.2211   1.4874

          k = 0.0417 0.3127 0.0000 ( 15272 PWs)   bands (ev):

   -24.2243 -24.1974 -24.1037 -24.0128 -23.9736 -23.7982 -23.7612 -23.7557
   -23.7191 -23.6783 -11.5925  -7.2185  -4.2530  -3.6607  -1.4113   0.3866
     1.5425   1.8609

          k = 0.0417 0.3608 0.0000 ( 15273 PWs)   bands (ev):

   -24.2427 -24.2135 -24.1009 -24.0154 -23.9665 -23.8060 -23.7578 -23.7531
   -23.7003 -23.6632 -11.3981  -7.6992  -4.3984  -3.4658  -1.4581  -0.0120
     1.7907   2.4071

          k = 0.0417 0.4090 0.0000 ( 15288 PWs)   bands (ev):

   -24.2581 -24.2270 -24.0984 -24.0177 -23.9596 -23.8137 -23.7567 -23.7508
   -23.6845 -23.6488 -11.1859  -8.1433  -4.5197  -3.2552  -1.5173  -0.3921
     2.0463   2.7998

          k = 0.0417 0.4571 0.0000 ( 15293 PWs)   bands (ev):

   -24.2701 -24.2374 -24.0964 -24.0195 -23.9533 -23.8205 -23.7566 -23.7490
   -23.6722 -23.6369 -10.9673  -8.5374  -4.6134  -3.0407  -1.5715  -0.7372
     2.3249   3.0375

          k = 0.0417 0.5052 0.0000 ( 15287 PWs)   bands (ev):

   -24.2782 -24.2446 -24.0949 -24.0208 -23.9484 -23.8258 -23.7569 -23.7477
   -23.6638 -23.6284 -10.7668  -8.8555  -4.6771  -2.8465  -1.6114  -1.0201
     2.6265   3.2503

          k = 0.0417 0.5533 0.0000 ( 15288 PWs)   bands (ev):

   -24.2824 -24.2482 -24.0941 -24.0215 -23.9457 -23.8287 -23.7571 -23.7471
   -23.6595 -23.6240 -10.6348  -9.0466  -4.7093  -2.7202  -1.6324  -1.1911
     2.9331   3.3619

          k = 0.0833 0.1443 0.0000 ( 15234 PWs)   bands (ev):

   -24.1589 -24.1332 -24.1140 -24.0046 -23.9920 -23.7982 -23.7893 -23.7775
   -23.7638 -23.7069 -12.0403  -5.5470  -4.1164  -3.7376  -1.7352   0.5760
     1.1301   1.4712

          k = 0.0833 0.1925 0.0000 ( 15253 PWs)   bands (ev):

   -24.1817 -24.1470 -24.1130 -24.0070 -23.9873 -23.7828 -23.7825 -23.7701
   -23.7614 -23.7019 -11.9376  -6.0436  -4.0110  -3.9279  -1.4149   0.6334
     1.2440   1.2802

          k = 0.0833 0.2406 0.0000 ( 15280 PWs)   bands (ev):

   -24.2050 -24.1628 -24.1109 -24.0097 -23.9816 -23.7892 -23.7686 -23.7588
   -23.7515 -23.6923 -11.8067  -6.5464  -4.1253  -3.8774  -1.2113   0.8376
     0.9130   1.3905

          k = 0.0833 0.2887 0.0000 ( 15283 PWs)   bands (ev):

   -24.2273 -24.1787 -24.1083 -24.0126 -23.9749 -23.7966 -23.7597 -23.7560
   -23.7337 -23.6779 -11.6486  -7.0410  -4.3141  -3.7171  -1.1358   0.5276
     1.1959   1.5760

          k = 0.0833 0.3368 0.0000 ( 15277 PWs)   bands (ev):

   -24.2477 -24.1936 -24.1056 -24.0154 -23.9677 -23.8046 -23.7556 -23.7532
   -23.7169 -23.6609 -11.4655  -7.5178  -4.4844  -3.5329  -1.1440   0.1382
     1.6203   1.8457

          k = 0.0833 0.3849 0.0000 ( 15278 PWs)   bands (ev):

   -24.2652 -24.2066 -24.1029 -24.0179 -23.9602 -23.8127 -23.7543 -23.7507
   -23.7019 -23.6442 -11.2612  -7.9678  -4.6298  -3.3293  -1.1887  -0.2424
     1.9361   2.3242

          k = 0.0833 0.4330 0.0000 ( 15284 PWs)   bands (ev):

   -24.2794 -24.2172 -24.1006 -24.0200 -23.9531 -23.8203 -23.7543 -23.7486
   -23.6895 -23.6297 -11.0433  -8.3799  -4.7461  -3.1143  -1.2410  -0.6002
     2.2133   2.9039

          k = 0.0833 0.4811 0.0000 ( 15309 PWs)   bands (ev):

   -24.2898 -24.2251 -24.0988 -24.0217 -23.9471 -23.8268 -23.7548 -23.7470
   -23.6803 -23.6186 -10.8280  -8.7354  -4.8309  -2.9045  -1.2857  -0.9147
     2.5059   3.0641

          k = 0.0833 0.5292 0.0000 ( 15290 PWs)   bands (ev):

   -24.2961 -24.2299 -24.0977 -24.0227 -23.9429 -23.8313 -23.7552 -23.7460
   -23.6745 -23.6118 -10.6514  -8.9969  -4.8823  -2.7345  -1.3149  -1.1486
     2.8150   3.1334

          k = 0.0833 0.5774 0.0000 ( 15302 PWs)   bands (ev):

   -24.2983 -24.2315 -24.0973 -24.0230 -23.9414 -23.8329 -23.7554 -23.7457
   -23.6726 -23.6094 -10.5779  -9.0987  -4.8995  -2.6645  -1.3250  -1.2400
     3.0508   3.1468

          k = 0.1250 0.2165 0.0000 ( 15266 PWs)   bands (ev):

   -24.2055 -24.1558 -24.1136 -24.0096 -23.9819 -23.7888 -23.7678 -23.7589
   -23.7566 -23.6924 -11.8210  -6.4867  -4.1488  -3.8920  -1.0991   0.6527
     0.9566   1.3686

          k = 0.1250 0.2646 0.0000 ( 15287 PWs)   bands (ev):

   -24.2289 -24.1668 -24.1128 -24.0126 -23.9754 -23.7959 -23.7560 -23.7558
   -23.7451 -23.6773 -11.6767  -6.9408  -4.3711  -3.7455  -0.8690   0.6052
     0.8063   1.5249

          k = 0.1250 0.3127 0.0000 ( 15289 PWs)   bands (ev):

   -24.2507 -24.1783 -24.1110 -24.0156 -23.9680 -23.8040 -23.7531 -23.7508
   -23.7315 -23.6590 -11.5061  -7.3922  -4.5769  -3.5735  -0.7662   0.2399
     1.1334   1.7139

          k = 0.1250 0.3608 0.0000 ( 15290 PWs)   bands (ev):

   -24.2701 -24.1893 -24.1088 -24.0184 -23.9602 -23.8125 -23.7504 -23.7498
   -23.7178 -23.6404 -11.3120  -7.8301  -4.7564  -3.3793  -0.7565  -0.1271
     1.5914   1.9409

          k = 0.1250 0.4090 0.0000 ( 15299 PWs)   bands (ev):

   -24.2863 -24.1988 -24.1067 -24.0208 -23.9522 -23.8210 -23.7503 -23.7480
   -23.7058 -23.6238 -11.0992  -8.2436  -4.9040  -3.1686  -0.7878  -0.4834
     2.0705   2.2569

          k = 0.1250 0.4571 0.0000 ( 15306 PWs)   bands (ev):

   -24.2988 -24.2064 -24.1048 -24.0228 -23.9449 -23.8288 -23.7512 -23.7460
   -23.6963 -23.6104 -10.8784  -8.6183  -5.0167  -2.9521  -0.8279  -0.8132
     2.4067   2.8741

          k = 0.1250 0.5052 0.0000 ( 15312 PWs)   bands (ev):

   -24.3074 -24.2116 -24.1034 -24.0242 -23.9391 -23.8349 -23.7521 -23.7447
   -23.6897 -23.6011 -10.6729  -8.9278  -5.0926  -2.7531  -1.0896  -0.8607
     2.7137   2.8825

          k = 0.1250 0.5533 0.0000 ( 15307 PWs)   bands (ev):

   -24.3117 -24.2143 -24.1027 -24.0250 -23.9358 -23.8384 -23.7526 -23.7440
   -23.6863 -23.5963 -10.5346  -9.1186  -5.1307  -2.6208  -1.2613  -0.8786
     2.8709   3.0137

          k = 0.1667 0.2887 0.0000 ( 15294 PWs)   bands (ev):

   -24.2518 -24.1722 -24.1137 -24.0156 -23.9681 -23.8038 -23.7530 -23.7430
   -23.7428 -23.6583 -11.5197  -7.3467  -4.6153  -3.5871  -0.5580   0.2762
     0.8692   1.6920

          k = 0.1667 0.3368 0.0000 ( 15300 PWs)   bands (ev):

   -24.2725 -24.1784 -24.1137 -24.0187 -23.9599 -23.8126 -23.7501 -23.7433
   -23.7305 -23.6385 -11.3375  -7.7528  -4.8371  -3.4046  -0.3661  -0.0634
     1.1093   1.8907

          k = 0.1667 0.3849 0.0000 ( 15307 PWs)   bands (ev):

   -24.2905 -24.1847 -24.1129 -24.0215 -23.9513 -23.8217 -23.7474 -23.7446
   -23.7195 -23.6201 -11.1335  -8.1489  -5.0256  -3.2018  -0.4034  -0.3022
     1.5284   2.1198

          k = 0.1667 0.4330 0.0000 ( 15309 PWs)   bands (ev):

   -24.3050 -24.1903 -24.1117 -24.0239 -23.9428 -23.8307 -23.7462 -23.7451
   -23.7104 -23.6047 -10.9140  -8.5230  -5.1752  -2.9858  -0.7315  -0.3046
     2.0538   2.3793

          k = 0.1667 0.4811 0.0000 ( 15305 PWs)   bands (ev):

   -24.3157 -24.1947 -24.1106 -24.0257 -23.9352 -23.8387 -23.7476 -23.7434
   -23.7035 -23.5930 -10.6934  -8.8569  -5.2832  -2.7710  -1.0294  -0.3263
     2.5974   2.6722

          k = 0.1667 0.5292 0.0000 ( 15313 PWs)   bands (ev):

   -24.3222 -24.1975 -24.1099 -24.0268 -23.9296 -23.8444 -23.7486 -23.7423
   -23.6994 -23.5859 -10.5064  -9.1130  -5.3484  -2.5910  -1.2604  -0.3452
     2.6275   2.9401

          k = 0.1667 0.5774 0.0000 ( 15298 PWs)   bands (ev):

   -24.3244 -24.1985 -24.1096 -24.0272 -23.9276 -23.8466 -23.7489 -23.7419
   -23.6979 -23.5834 -10.4255  -9.2171  -5.3702  -2.5140  -1.3546  -0.3523
     2.6107   3.1283

          k = 0.2083 0.3608 0.0000 ( 15320 PWs)   bands (ev):

   -24.2919 -24.1791 -24.1158 -24.0218 -23.9509 -23.8221 -23.7472 -23.7402
   -23.7266 -23.6189 -11.1450  -8.1146  -5.0709  -3.2129  -0.3746  -0.0258
     1.2087   2.1000

          k = 0.2083 0.4090 0.0000 ( 15309 PWs)   bands (ev):

   -24.3082 -24.1802 -24.1171 -24.0245 -23.9415 -23.8319 -23.7446 -23.7408
   -23.7205 -23.6017 -10.9324  -8.4688  -5.2655  -3.0031  -0.6855   0.1629
     1.5142   2.3385

          k = 0.2083 0.4571 0.0000 ( 15313 PWs)   bands (ev):

   -24.3208 -24.1815 -24.1177 -24.0267 -23.9322 -23.8415 -23.7424 -23.7424
   -23.7148 -23.5880 -10.7078  -8.8034  -5.4144  -2.7835  -0.9842   0.2226
     1.9899   2.5342

          k = 0.2083 0.5052 0.0000 ( 15308 PWs)   bands (ev):

   -24.3294 -24.1827 -24.1180 -24.0283 -23.9242 -23.8498 -23.7437 -23.7410
   -23.7108 -23.5786 -10.4910  -9.0955  -5.5148  -2.5738  -1.2485   0.2305
     2.4498   2.5260

          k = 0.2083 0.5533 0.0000 ( 15308 PWs)   bands (ev):

   -24.3337 -24.1833 -24.1180 -24.0291 -23.9192 -23.8549 -23.7444 -23.7402
   -23.7086 -23.5737 -10.3349  -9.2898  -5.5652  -2.4245  -1.4256   0.2274
     2.4043   2.9385

          k = 0.2500 0.4330 0.0000 ( 15280 PWs)   bands (ev):

   -24.3225 -24.1761 -24.1211 -24.0271 -23.9311 -23.8426 -23.7421 -23.7391
   -23.7201 -23.5863 -10.7130  -8.7835  -5.4611  -2.7881  -0.9674   0.5463
     1.6339   2.4860

          k = 0.2500 0.4811 0.0000 ( 15307 PWs)   bands (ev):

   -24.3330 -24.1728 -24.1244 -24.0291 -23.9209 -23.8531 -23.7402 -23.7390
   -23.7188 -23.5748 -10.4846  -9.0817  -5.6047  -2.5662  -1.2383   0.7485
     1.9652   2.3562

          k = 0.2500 0.5292 0.0000 ( 15315 PWs)   bands (ev):

   -24.3394 -24.1705 -24.1266 -24.0303 -23.9123 -23.8618 -23.7394 -23.7391
   -23.7176 -23.5677 -10.2743  -9.3347  -5.6919  -2.3639  -1.4706   0.8143
     2.2729   2.4028

          k = 0.2500 0.5774 0.0000 ( 15316 PWs)   bands (ev):

   -24.3416 -24.1697 -24.1274 -24.0307 -23.9086 -23.8655 -23.7396 -23.7387
   -23.7171 -23.5653 -10.1706  -9.4527  -5.7212  -2.2651  -1.5795   0.8278
     2.2445   2.6433

          k = 0.2917 0.5052 0.0000 ( 15312 PWs)   bands (ev):

   -24.3414 -24.1646 -24.1311 -24.0307 -23.9094 -23.8647 -23.7387 -23.7363
   -23.7220 -23.5657 -10.2528  -9.3499  -5.7359  -2.3423  -1.4862   1.1806
     2.0371   2.2278

          k = 0.2917 0.5533 0.0000 ( 15329 PWs)   bands (ev):

   -24.3456 -24.1585 -24.1364 -24.0316 -23.8999 -23.8743 -23.7379 -23.7347
   -23.7239 -23.5611 -10.0468  -9.5741  -5.8026  -2.1450  -1.6953   1.3880
     2.1616   2.2180

          k = 0.3333 0.5774 0.0000 ( 15288 PWs)   bands (ev):

   -24.3476 -24.1471 -24.1471 -24.0320 -23.8871 -23.8871 -23.7375 -23.7295
   -23.7295 -23.5588  -9.8123  -9.8123  -5.8403  -1.9210  -1.9210   1.8841
     1.8841   2.1238

     the Fermi energy is    -2.2761 ev

!    total energy              =    -326.39168932 Ry
     estimated scf accuracy    <          7.1E-09 Ry
     smearing contrib. (-TS)   =       0.00026207 Ry
     internal energy E=F+TS    =    -326.39195138 Ry

     The total energy is F=E-TS. E is the sum of the following terms:
     one-electron contribution =    -882.87714095 Ry
     hartree contribution      =     448.58030335 Ry
     xc contribution           =     -95.07341752 Ry
     ewald contribution        =     202.97830375 Ry

     convergence has been achieved in   7 iterations

     Writing all to output data dir ../tmp/stanene.save/

     init_run     :     36.96s CPU     15.73s WALL (       1 calls)
     electrons    :   1714.26s CPU    717.48s WALL (       1 calls)

     Called by init_run:
     wfcinit      :     34.46s CPU     14.01s WALL (       1 calls)
     potinit      :      0.10s CPU      0.11s WALL (       1 calls)
     hinit0       :      0.56s CPU      0.56s WALL (       1 calls)

     Called by electrons:
     c_bands      :   1429.32s CPU    590.27s WALL (       7 calls)
     sum_band     :    239.96s CPU    104.50s WALL (       7 calls)
     v_of_rho     :      0.53s CPU      0.56s WALL (       8 calls)
     newd         :     46.11s CPU     23.06s WALL (       8 calls)
     mix_rho      :      0.07s CPU      0.07s WALL (       7 calls)

     Called by c_bands:
     init_us_2    :     16.88s CPU      4.99s WALL (     915 calls)
     init_us_2:cp :     16.87s CPU      4.99s WALL (     915 calls)
     cegterg      :   1387.78s CPU    577.69s WALL (     427 calls)

     Called by *egterg:
     cdiaghg      :     11.80s CPU      4.14s WALL (    2370 calls)
     h_psi        :   1046.09s CPU    459.66s WALL (    2431 calls)
     s_psi        :     35.37s CPU     10.96s WALL (    2431 calls)
     g_psi        :      3.76s CPU      1.25s WALL (    1943 calls)

     Called by h_psi:
     h_psi:calbec :    682.63s CPU    329.53s WALL (    2431 calls)
     vloc_psi     :    326.25s CPU    118.36s WALL (    2431 calls)
     add_vuspsi   :     33.38s CPU     10.38s WALL (    2431 calls)

     General routines
     calbec       :    846.80s CPU    409.75s WALL (    2858 calls)
     fft          :      0.52s CPU      0.54s WALL (      88 calls)
     ffts         :      0.12s CPU      0.03s WALL (       7 calls)
     fftw         :    326.41s CPU    114.89s WALL (   58036 calls)

     Parallel routines

     PWSCF        :  29m11.47s CPU  12m13.61s WALL


   This run was terminated on:  19:26:44  19Jun2024            

=------------------------------------------------------------------------------=
   JOB DONE.
=------------------------------------------------------------------------------=
