### Running on host: handarmsi

     Program PWSCF v.7.2 starts on 19Jun2024 at 19:39:43 

     This program is part of the open-source Quantum ESPRESSO suite
     for quantum simulation of materials; please cite
         "P. Giannozzi et al., J. Phys.:Condens. Matter 21 395502 (2009);
         "P. Giannozzi et al., J. Phys.:Condens. Matter 29 465901 (2017);
         "P. Giannozzi et al., J. Chem. Phys. 152 154105 (2020);
          URL http://www.quantum-espresso.org", 
     in publications or presentations arising from this work. More details at
     http://www.quantum-espresso.org/quote

     Parallel version (MPI), running on     1 processors

     MPI processes distributed on     1 nodes
     5569 MiB available memory on the printing compute node when the environment starts

     Reading input from sn_scf_ecutwfc-70.in

     Current dimensions of program PWSCF are:
     Max number of different atomic species (ntypx) = 10
     Max number of k-points (npk) =  40000
     Max angular momentum in pseudopotentials (lmaxx) =  4

     Subspace diagonalization in iterative solution of the eigenvalue problem:
     a serial algorithm will be used


     G-vector sticks info
     --------------------
     sticks:   dense  smooth     PW     G-vecs:    dense   smooth      PW
     Sum        1507    1507    421               202743   202743   29939

     Using Slab Decomposition



     bravais-lattice index     =            4
     lattice parameter (alat)  =       8.8439  a.u.
     unit-cell volume          =    2560.0529 (a.u.)^3
     number of atoms/cell      =            2
     number of atomic types    =            1
     number of electrons       =        28.00
     number of Kohn-Sham states=           18
     kinetic-energy cutoff     =      70.0000  Ry
     charge density cutoff     =     280.0000  Ry
     scf convergence threshold =      1.0E-06
     mixing beta               =       0.7000
     number of iterations used =            8  plain     mixing
     Exchange-correlation= SLA  PW   PBE  PBE
                           (   1   4   3   4   0   0   0)

     celldm(1)=   8.843918  celldm(2)=   0.000000  celldm(3)=   4.273504
     celldm(4)=   0.000000  celldm(5)=   0.000000  celldm(6)=   0.000000

     crystal axes: (cart. coord. in units of alat)
               a(1) = (   1.000000   0.000000   0.000000 )  
               a(2) = (  -0.500000   0.866025   0.000000 )  
               a(3) = (   0.000000   0.000000   4.273504 )  

     reciprocal axes: (cart. coord. in units 2 pi/alat)
               b(1) = (  1.000000  0.577350 -0.000000 )  
               b(2) = (  0.000000  1.154701  0.000000 )  
               b(3) = (  0.000000 -0.000000  0.234000 )  


     PseudoPot. # 1 for Sn read from file:
     ../pseudo/Sn_pbe_v1.uspp.F.UPF
     MD5 check sum: 4cf58ce39ec5d5d420df3dd08604eb00
     Pseudo is Ultrasoft + core correction, Zval = 14.0
     Generated by new atomic code, or converted to UPF format
     Using radial grid of  891 points,  6 beta functions with: 
                l(1) =   0
                l(2) =   0
                l(3) =   1
                l(4) =   1
                l(5) =   2
                l(6) =   2
     Q(r) pseudized with  6 coefficients,  rinner =    1.200   1.200   1.200
                                                       1.200   1.200

     atomic species   valence    mass     pseudopotential
        Sn            14.00   118.71000     Sn( 1.00)

     24 Sym. Ops., with inversion, found



   Cartesian axes

     site n.     atom                  positions (alat units)
         1           Sn  tau(   1) = (   0.0000000   0.5773503   2.1367521  )
         2           Sn  tau(   2) = (   0.5000000   0.2886751   2.1367521  )

     number of k points=    61  Methfessel-Paxton smearing, width (Ry)=  0.0200
                       cart. coord. in units 2pi/alat
        k(    1) = (   0.0000000   0.0000000   0.0000000), wk =   0.0034722
        k(    2) = (   0.0000000   0.0481125   0.0000000), wk =   0.0208333
        k(    3) = (   0.0000000   0.0962250   0.0000000), wk =   0.0208333
        k(    4) = (   0.0000000   0.1443376   0.0000000), wk =   0.0208333
        k(    5) = (   0.0000000   0.1924501   0.0000000), wk =   0.0208333
        k(    6) = (   0.0000000   0.2405626   0.0000000), wk =   0.0208333
        k(    7) = (   0.0000000   0.2886751   0.0000000), wk =   0.0208333
        k(    8) = (   0.0000000   0.3367877   0.0000000), wk =   0.0208333
        k(    9) = (   0.0000000   0.3849002   0.0000000), wk =   0.0208333
        k(   10) = (   0.0000000   0.4330127   0.0000000), wk =   0.0208333
        k(   11) = (   0.0000000   0.4811252   0.0000000), wk =   0.0208333
        k(   12) = (   0.0000000   0.5292377   0.0000000), wk =   0.0208333
        k(   13) = (   0.0000000  -0.5773503   0.0000000), wk =   0.0104167
        k(   14) = (   0.0416667   0.0721688   0.0000000), wk =   0.0208333
        k(   15) = (   0.0416667   0.1202813   0.0000000), wk =   0.0416667
        k(   16) = (   0.0416667   0.1683938   0.0000000), wk =   0.0416667
        k(   17) = (   0.0416667   0.2165064   0.0000000), wk =   0.0416667
        k(   18) = (   0.0416667   0.2646189   0.0000000), wk =   0.0416667
        k(   19) = (   0.0416667   0.3127314   0.0000000), wk =   0.0416667
        k(   20) = (   0.0416667   0.3608439   0.0000000), wk =   0.0416667
        k(   21) = (   0.0416667   0.4089564   0.0000000), wk =   0.0416667
        k(   22) = (   0.0416667   0.4570690   0.0000000), wk =   0.0416667
        k(   23) = (   0.0416667   0.5051815   0.0000000), wk =   0.0416667
        k(   24) = (   0.0416667   0.5532940   0.0000000), wk =   0.0416667
        k(   25) = (   0.0833333   0.1443376   0.0000000), wk =   0.0208333
        k(   26) = (   0.0833333   0.1924501   0.0000000), wk =   0.0416667
        k(   27) = (   0.0833333   0.2405626   0.0000000), wk =   0.0416667
        k(   28) = (   0.0833333   0.2886751   0.0000000), wk =   0.0416667
        k(   29) = (   0.0833333   0.3367877   0.0000000), wk =   0.0416667
        k(   30) = (   0.0833333   0.3849002   0.0000000), wk =   0.0416667
        k(   31) = (   0.0833333   0.4330127   0.0000000), wk =   0.0416667
        k(   32) = (   0.0833333   0.4811252   0.0000000), wk =   0.0416667
        k(   33) = (   0.0833333   0.5292377   0.0000000), wk =   0.0416667
        k(   34) = (   0.0833333   0.5773503   0.0000000), wk =   0.0208333
        k(   35) = (   0.1250000   0.2165064   0.0000000), wk =   0.0208333
        k(   36) = (   0.1250000   0.2646189   0.0000000), wk =   0.0416667
        k(   37) = (   0.1250000   0.3127314   0.0000000), wk =   0.0416667
        k(   38) = (   0.1250000   0.3608439   0.0000000), wk =   0.0416667
        k(   39) = (   0.1250000   0.4089564   0.0000000), wk =   0.0416667
        k(   40) = (   0.1250000   0.4570690   0.0000000), wk =   0.0416667
        k(   41) = (   0.1250000   0.5051815   0.0000000), wk =   0.0416667
        k(   42) = (   0.1250000   0.5532940   0.0000000), wk =   0.0416667
        k(   43) = (   0.1666667   0.2886751   0.0000000), wk =   0.0208333
        k(   44) = (   0.1666667   0.3367877   0.0000000), wk =   0.0416667
        k(   45) = (   0.1666667   0.3849002   0.0000000), wk =   0.0416667
        k(   46) = (   0.1666667   0.4330127   0.0000000), wk =   0.0416667
        k(   47) = (   0.1666667   0.4811252   0.0000000), wk =   0.0416667
        k(   48) = (   0.1666667   0.5292377   0.0000000), wk =   0.0416667
        k(   49) = (   0.1666667   0.5773503   0.0000000), wk =   0.0208333
        k(   50) = (   0.2083333   0.3608439   0.0000000), wk =   0.0208333
        k(   51) = (   0.2083333   0.4089564   0.0000000), wk =   0.0416667
        k(   52) = (   0.2083333   0.4570690   0.0000000), wk =   0.0416667
        k(   53) = (   0.2083333   0.5051815   0.0000000), wk =   0.0416667
        k(   54) = (   0.2083333   0.5532940   0.0000000), wk =   0.0416667
        k(   55) = (   0.2500000   0.4330127   0.0000000), wk =   0.0208333
        k(   56) = (   0.2500000   0.4811252   0.0000000), wk =   0.0416667
        k(   57) = (   0.2500000   0.5292377   0.0000000), wk =   0.0416667
        k(   58) = (   0.2500000   0.5773503   0.0000000), wk =   0.0208333
        k(   59) = (   0.2916667   0.5051815   0.0000000), wk =   0.0208333
        k(   60) = (   0.2916667   0.5532940   0.0000000), wk =   0.0416667
        k(   61) = (   0.3333333   0.5773503   0.0000000), wk =   0.0069444

     Dense  grid:   202743 G-vectors     FFT dimensions: (  48,  48, 216)

     Estimated max dynamical RAM per process >       1.12 GB

     Initial potential from superposition of free atoms

     starting charge      25.9999, renormalised to      28.0000

     negative rho (up, down):  1.111E-03 0.000E+00
     Starting wfcs are   18 randomized atomic wfcs

     total cpu time spent up to now is       25.3 secs

     Self-consistent Calculation

     iteration #  1     ecut=    70.00 Ry     beta= 0.70
     Davidson diagonalization with overlap
     ethr =  1.00E-02,  avg # of iterations =  7.3

     negative rho (up, down):  3.920E-04 0.000E+00

     total cpu time spent up to now is      183.3 secs

     total energy              =    -325.44177821 Ry
     estimated scf accuracy    <       2.47997900 Ry

     iteration #  2     ecut=    70.00 Ry     beta= 0.70
     Davidson diagonalization with overlap
     ethr =  8.86E-03,  avg # of iterations =  2.1

     negative rho (up, down):  6.245E-04 0.000E+00

     total cpu time spent up to now is      286.4 secs

     total energy              =    -326.33469103 Ry
     estimated scf accuracy    <       0.36159292 Ry

     iteration #  3     ecut=    70.00 Ry     beta= 0.70
     Davidson diagonalization with overlap
     ethr =  1.29E-03,  avg # of iterations =  2.2

     negative rho (up, down):  8.634E-04 0.000E+00

     total cpu time spent up to now is      395.0 secs

     total energy              =    -326.39084073 Ry
     estimated scf accuracy    <       0.00518169 Ry

     iteration #  4     ecut=    70.00 Ry     beta= 0.70
     Davidson diagonalization with overlap
     ethr =  1.85E-05,  avg # of iterations =  8.8

     negative rho (up, down):  8.792E-04 0.000E+00

     total cpu time spent up to now is      564.6 secs

     total energy              =    -326.39268806 Ry
     estimated scf accuracy    <       0.00068626 Ry

     iteration #  5     ecut=    70.00 Ry     beta= 0.70
     Davidson diagonalization with overlap
     ethr =  2.45E-06,  avg # of iterations =  4.6

     negative rho (up, down):  8.796E-04 0.000E+00

     total cpu time spent up to now is      683.7 secs

     total energy              =    -326.39282487 Ry
     estimated scf accuracy    <       0.00000133 Ry

     iteration #  6     ecut=    70.00 Ry     beta= 0.70
     Davidson diagonalization with overlap
     ethr =  4.74E-09,  avg # of iterations =  4.0

     negative rho (up, down):  8.805E-04 0.000E+00

     total cpu time spent up to now is      854.4 secs

     total energy              =    -326.39282609 Ry
     estimated scf accuracy    <       0.00000126 Ry

     iteration #  7     ecut=    70.00 Ry     beta= 0.70
     Davidson diagonalization with overlap
     ethr =  4.51E-09,  avg # of iterations =  2.0

     negative rho (up, down):  8.807E-04 0.000E+00

     total cpu time spent up to now is      963.8 secs

     End of self-consistent calculation

          k = 0.0000 0.0000 0.0000 ( 25367 PWs)   bands (ev):

   -24.1138 -24.0968 -24.0968 -23.9953 -23.9953 -23.8336 -23.8336 -23.7633
   -23.7633 -23.7061 -12.2127  -4.2951  -3.6816  -3.3478  -3.3478   0.6728
     0.6728   0.9903

          k = 0.0000 0.0481 0.0000 ( 25355 PWs)   bands (ev):

   -24.1147 -24.1014 -24.1000 -23.9957 -23.9946 -23.8293 -23.8285 -23.7641
   -23.7629 -23.7059 -12.1979  -4.2797  -4.1257  -3.3815  -2.9221   0.6539
     0.7365   1.0134

          k = 0.0000 0.0962 0.0000 ( 25333 PWs)   bands (ev):

   -24.1212 -24.1141 -24.1048 -23.9968 -23.9926 -23.8178 -23.8145 -23.7664
   -23.7618 -23.7053 -12.1535  -4.7051  -4.2337  -3.4757  -2.4086   0.6287
     0.9205   1.0744

          k = 0.0000 0.1443 0.0000 ( 25349 PWs)   bands (ev):

   -24.1367 -24.1320 -24.1054 -23.9986 -23.9893 -23.8019 -23.7945 -23.7702
   -23.7600 -23.7037 -12.0796  -5.2859  -4.1575  -3.6135  -1.9733   0.6657
     1.1661   1.2078

          k = 0.0000 0.1925 0.0000 ( 25285 PWs)   bands (ev):

   -24.1566 -24.1526 -24.1039 -24.0008 -23.9848 -23.7852 -23.7753 -23.7711
   -23.7578 -23.7003 -11.9767  -5.8558  -4.0517  -3.7757  -1.6726   0.8354
     1.2903   1.4129

          k = 0.0000 0.2406 0.0000 ( 25298 PWs)   bands (ev):

   -24.1776 -24.1738 -24.1017 -24.0034 -23.9793 -23.7816 -23.7708 -23.7552
   -23.7467 -23.6938 -11.8455  -6.4082  -3.9456  -3.9176  -1.5269   1.0201
     1.1561   1.4644

          k = 0.0000 0.2887 0.0000 ( 25292 PWs)   bands (ev):

   -24.1982 -24.1941 -24.0991 -24.0061 -23.9729 -23.7887 -23.7610 -23.7525
   -23.7229 -23.6836 -11.6872  -6.9381  -4.1105  -3.7569  -1.4994   0.6127
     1.4978   1.7903

          k = 0.0000 0.3368 0.0000 ( 25300 PWs)   bands (ev):

   -24.2170 -24.2126 -24.0963 -24.0088 -23.9661 -23.7963 -23.7556 -23.7498
   -23.7009 -23.6707 -11.5039  -7.4403  -4.2612  -3.5724  -1.5349   0.2054
     1.7448   2.3313

          k = 0.0000 0.3849 0.0000 ( 25318 PWs)   bands (ev):

   -24.2333 -24.2285 -24.0937 -24.0112 -23.9591 -23.8040 -23.7533 -23.7474
   -23.6818 -23.6572 -11.2997  -7.9084  -4.3913  -3.3687  -1.5940  -0.1889
     1.9879   2.8667

          k = 0.0000 0.4330 0.0000 ( 25324 PWs)   bands (ev):

   -24.2466 -24.2413 -24.0915 -24.0133 -23.9525 -23.8112 -23.7526 -23.7454
   -23.6662 -23.6452 -11.0825  -8.3327  -4.4963  -3.1543  -1.6540  -0.5563
     2.2520   3.0950

          k = 0.0000 0.4811 0.0000 ( 25342 PWs)   bands (ev):

   -24.2563 -24.2507 -24.0897 -24.0148 -23.9469 -23.8173 -23.7527 -23.7438
   -23.6547 -23.6358 -10.8690  -8.6950  -4.5733  -2.9462  -1.7029  -0.8760
     2.5402   3.3203

          k = 0.0000 0.5292 0.0000 ( 25316 PWs)   bands (ev):

   -24.2623 -24.2564 -24.0886 -24.0158 -23.9432 -23.8213 -23.7529 -23.7429
   -23.6476 -23.6299 -10.6952  -8.9584  -4.6202  -2.7792  -1.7342  -1.1109
     2.8452   3.4961

          k = 0.0000-0.5774 0.0000 ( 25344 PWs)   bands (ev):

   -24.2643 -24.2583 -24.0882 -24.0161 -23.9418 -23.8228 -23.7530 -23.7426
   -23.6452 -23.6279 -10.6237  -9.0599  -4.6360  -2.7111  -1.7450  -1.2017
     3.0714   3.3538

          k = 0.0417 0.0722 0.0000 ( 25329 PWs)   bands (ev):

   -24.1193 -24.1066 -24.1065 -23.9965 -23.9932 -23.8215 -23.8190 -23.7656
   -23.7621 -23.7055 -12.1683  -4.5479  -4.2490  -3.4491  -2.5373   0.6235
     0.8686   1.0547

          k = 0.0417 0.1203 0.0000 ( 25339 PWs)   bands (ev):

   -24.1340 -24.1196 -24.1077 -23.9979 -23.9905 -23.8078 -23.8022 -23.7687
   -23.7607 -23.7044 -12.1091  -5.0780  -4.1879  -3.5738  -2.0969   0.6053
     1.1225   1.1313

          k = 0.0417 0.1684 0.0000 ( 25336 PWs)   bands (ev):

   -24.1543 -24.1367 -24.1064 -24.0000 -23.9866 -23.7914 -23.7810 -23.7732
   -23.7586 -23.7018 -12.0207  -5.6278  -4.0969  -3.7338  -1.7287   0.6721
     1.2320   1.4826

          k = 0.0417 0.2165 0.0000 ( 25332 PWs)   bands (ev):

   -24.1766 -24.1556 -24.1042 -24.0025 -23.9815 -23.7790 -23.7757 -23.7582
   -23.7562 -23.6964 -11.9036  -6.1735  -3.9769  -3.9092  -1.4961   0.8859
     1.1905   1.3688

          k = 0.0417 0.2646 0.0000 ( 25308 PWs)   bands (ev):

   -24.1988 -24.1747 -24.1017 -24.0052 -23.9755 -23.7858 -23.7636 -23.7535
   -23.7356 -23.6869 -11.7587  -6.7046  -4.0845  -3.8293  -1.4044   0.7945
     1.2442   1.5541

          k = 0.0417 0.3127 0.0000 ( 25319 PWs)   bands (ev):

   -24.2195 -24.1927 -24.0989 -24.0079 -23.9687 -23.7933 -23.7565 -23.7508
   -23.7144 -23.6736 -11.5876  -7.2137  -4.2488  -3.6564  -1.4069   0.3906
     1.6087   1.8842

          k = 0.0417 0.3608 0.0000 ( 25301 PWs)   bands (ev):

   -24.2379 -24.2087 -24.0962 -24.0105 -23.9616 -23.8011 -23.7531 -23.7482
   -23.6957 -23.6585 -11.3932  -7.6944  -4.3942  -3.4616  -1.4538  -0.0078
     1.8700   2.4184

          k = 0.0417 0.4090 0.0000 ( 25324 PWs)   bands (ev):

   -24.2534 -24.2222 -24.0937 -24.0128 -23.9547 -23.8088 -23.7520 -23.7459
   -23.6798 -23.6441 -11.1810  -8.1385  -4.5155  -3.2511  -1.5130  -0.3877
     2.1267   2.9770

          k = 0.0417 0.4571 0.0000 ( 25324 PWs)   bands (ev):

   -24.2653 -24.2327 -24.0916 -24.0146 -23.9484 -23.8156 -23.7519 -23.7441
   -23.6675 -23.6322 -10.9624  -8.5326  -4.6092  -3.0366  -1.5672  -0.7327
     2.4040   3.1906

          k = 0.0417 0.5052 0.0000 ( 25351 PWs)   bands (ev):

   -24.2735 -24.2398 -24.0902 -24.0159 -23.9435 -23.8209 -23.7522 -23.7428
   -23.6591 -23.6237 -10.7619  -8.8508  -4.6729  -2.8426  -1.6072  -1.0154
     2.7027   3.3579

          k = 0.0417 0.5533 0.0000 ( 25327 PWs)   bands (ev):

   -24.2776 -24.2434 -24.0894 -24.0166 -23.9408 -23.8237 -23.7524 -23.7422
   -23.6548 -23.6194 -10.6299  -9.0418  -4.7051  -2.7165  -1.6282  -1.1863
     3.0009   3.4394

          k = 0.0833 0.1443 0.0000 ( 25343 PWs)   bands (ev):

   -24.1541 -24.1285 -24.1093 -23.9998 -23.9871 -23.7936 -23.7847 -23.7726
   -23.7589 -23.7022 -12.0354  -5.5422  -4.1120  -3.7333  -1.7307   0.5829
     1.2127   1.4751

          k = 0.0833 0.1925 0.0000 ( 25318 PWs)   bands (ev):

   -24.1769 -24.1423 -24.1082 -24.0021 -23.9824 -23.7779 -23.7778 -23.7655
   -23.7565 -23.6972 -11.9328  -6.0388  -4.0066  -3.9237  -1.4104   0.6404
     1.2839   1.3266

          k = 0.0833 0.2406 0.0000 ( 25288 PWs)   bands (ev):

   -24.2002 -24.1581 -24.1061 -24.0048 -23.9767 -23.7843 -23.7640 -23.7539
   -23.7468 -23.6876 -11.8018  -6.5415  -4.1211  -3.8730  -1.2069   0.8455
     0.9167   1.4719

          k = 0.0833 0.2887 0.0000 ( 25294 PWs)   bands (ev):

   -24.2226 -24.1740 -24.1035 -24.0077 -23.9700 -23.7917 -23.7551 -23.7511
   -23.7290 -23.6732 -11.6437  -7.0362  -4.3099  -3.7128  -1.1314   0.5314
     1.2077   1.6532

          k = 0.0833 0.3368 0.0000 ( 25316 PWs)   bands (ev):

   -24.2429 -24.1888 -24.1008 -24.0105 -23.9628 -23.7996 -23.7509 -23.7483
   -23.7122 -23.6562 -11.4606  -7.5130  -4.4802  -3.5287  -1.1397   0.1422
     1.6565   1.8978

          k = 0.0833 0.3849 0.0000 ( 25301 PWs)   bands (ev):

   -24.2604 -24.2019 -24.0982 -24.0130 -23.9554 -23.8078 -23.7496 -23.7458
   -23.6972 -23.6395 -11.2563  -7.9630  -4.6256  -3.3251  -1.1844  -0.2383
     2.0108   2.3370

          k = 0.0833 0.4330 0.0000 ( 25308 PWs)   bands (ev):

   -24.2746 -24.2125 -24.0959 -24.0152 -23.9483 -23.8154 -23.7496 -23.7437
   -23.6848 -23.6250 -11.0384  -8.3751  -4.7420  -3.1102  -1.2368  -0.5959
     2.2922   2.9070

          k = 0.0833 0.4811 0.0000 ( 25338 PWs)   bands (ev):

   -24.2850 -24.2203 -24.0941 -24.0168 -23.9422 -23.8219 -23.7501 -23.7421
   -23.6755 -23.6140 -10.8231  -8.7306  -4.8267  -2.9005  -1.2814  -0.9103
     2.5836   3.1498

          k = 0.0833 0.5292 0.0000 ( 25337 PWs)   bands (ev):

   -24.2914 -24.2251 -24.0929 -24.0178 -23.9380 -23.8264 -23.7505 -23.7411
   -23.6698 -23.6071 -10.6465  -8.9921  -4.8781  -2.7307  -1.3107  -1.1440
     2.8879   3.1817

          k = 0.0833 0.5774 0.0000 ( 25330 PWs)   bands (ev):

   -24.2935 -24.2268 -24.0925 -24.0181 -23.9365 -23.8280 -23.7507 -23.7408
   -23.6679 -23.6048 -10.5730  -9.0939  -4.8954  -2.6608  -1.3208  -1.2353
     3.1099   3.1854

          k = 0.1250 0.2165 0.0000 ( 25306 PWs)   bands (ev):

   -24.2007 -24.1511 -24.1088 -24.0048 -23.9770 -23.7839 -23.7631 -23.7540
   -23.7519 -23.6877 -11.8162  -6.4819  -4.1447  -3.8876  -1.0947   0.6593
     0.9602   1.4514

          k = 0.1250 0.2646 0.0000 ( 25295 PWs)   bands (ev):

   -24.2241 -24.1620 -24.1080 -24.0077 -23.9705 -23.7910 -23.7511 -23.7511
   -23.7404 -23.6726 -11.6718  -6.9360  -4.3669  -3.7411  -0.8646   0.6088
     0.8130   1.6071

          k = 0.1250 0.3127 0.0000 ( 25301 PWs)   bands (ev):

   -24.2460 -24.1736 -24.1062 -24.0107 -23.9631 -23.7991 -23.7482 -23.7461
   -23.7268 -23.6543 -11.5013  -7.3874  -4.5727  -3.5692  -0.7618   0.2436
     1.1409   1.7944

          k = 0.1250 0.3608 0.0000 ( 25306 PWs)   bands (ev):

   -24.2653 -24.1845 -24.1040 -24.0135 -23.9553 -23.8076 -23.7455 -23.7451
   -23.7131 -23.6357 -11.3071  -7.8253  -4.7522  -3.3751  -0.7522  -0.1232
     1.6030   2.0165

          k = 0.1250 0.4090 0.0000 ( 25312 PWs)   bands (ev):

   -24.2815 -24.1940 -24.1019 -24.0160 -23.9473 -23.8161 -23.7456 -23.7430
   -23.7011 -23.6191 -11.0944  -8.2388  -4.8999  -3.1645  -0.7835  -0.4794
     2.1126   2.3004

          k = 0.1250 0.4571 0.0000 ( 25314 PWs)   bands (ev):

   -24.2941 -24.2016 -24.1000 -24.0180 -23.9400 -23.8239 -23.7465 -23.7411
   -23.6916 -23.6057 -10.8735  -8.6135  -5.0125  -2.9481  -0.8236  -0.8090
     2.4839   2.9386

          k = 0.1250 0.5052 0.0000 ( 25310 PWs)   bands (ev):

   -24.3026 -24.2068 -24.0986 -24.0194 -23.9342 -23.8300 -23.7474 -23.7397
   -23.6850 -23.5964 -10.6680  -8.9230  -5.0884  -2.7493  -1.0853  -0.8564
     2.7892   2.9204

          k = 0.1250 0.5533 0.0000 ( 25350 PWs)   bands (ev):

   -24.3070 -24.2095 -24.0979 -24.0201 -23.9309 -23.8335 -23.7479 -23.7390
   -23.6816 -23.5917 -10.5297  -9.1138  -5.1266  -2.6170  -1.2568  -0.8743
     2.9006   3.0785

          k = 0.1667 0.2887 0.0000 ( 25286 PWs)   bands (ev):

   -24.2470 -24.1674 -24.1089 -24.0108 -23.9632 -23.7989 -23.7481 -23.7383
   -23.7381 -23.6536 -11.5149  -7.3419  -4.6111  -3.5828  -0.5536   0.2798
     0.8755   1.7739

          k = 0.1667 0.3368 0.0000 ( 25315 PWs)   bands (ev):

   -24.2678 -24.1736 -24.1089 -24.0138 -23.9550 -23.8077 -23.7452 -23.7386
   -23.7258 -23.6338 -11.3327  -7.7480  -4.8329  -3.4003  -0.3618  -0.0597
     1.1156   1.9714

          k = 0.1667 0.3849 0.0000 ( 25294 PWs)   bands (ev):

   -24.2857 -24.1799 -24.1080 -24.0166 -23.9464 -23.8168 -23.7425 -23.7399
   -23.7148 -23.6154 -11.1286  -8.1441  -5.0214  -3.1976  -0.3996  -0.2978
     1.5353   2.1986

          k = 0.1667 0.4330 0.0000 ( 25308 PWs)   bands (ev):

   -24.3003 -24.1856 -24.1069 -24.0190 -23.9379 -23.8258 -23.7415 -23.7402
   -23.7056 -23.6000 -10.9091  -8.5182  -5.1711  -2.9817  -0.7276  -0.3003
     2.0630   2.4538

          k = 0.1667 0.4811 0.0000 ( 25314 PWs)   bands (ev):

   -24.3109 -24.1900 -24.1058 -24.0208 -23.9303 -23.8338 -23.7429 -23.7384
   -23.6988 -23.5884 -10.6885  -8.8520  -5.2791  -2.7670  -1.0253  -0.3220
     2.6283   2.7046

          k = 0.1667 0.5292 0.0000 ( 25332 PWs)   bands (ev):

   -24.3174 -24.1927 -24.1051 -24.0219 -23.9247 -23.8395 -23.7439 -23.7373
   -23.6946 -23.5812 -10.5015  -9.1082  -5.3443  -2.5872  -1.2562  -0.3409
     2.6534   3.0082

          k = 0.1667 0.5774 0.0000 ( 25370 PWs)   bands (ev):

   -24.3196 -24.1937 -24.1048 -24.0223 -23.9227 -23.8417 -23.7442 -23.7370
   -23.6932 -23.5788 -10.4206  -9.2123  -5.3661  -2.5103  -1.3503  -0.3480
     2.6351   3.1733

          k = 0.2083 0.3608 0.0000 ( 25296 PWs)   bands (ev):

   -24.2872 -24.1743 -24.1110 -24.0169 -23.9460 -23.8171 -23.7422 -23.7355
   -23.7219 -23.6141 -11.1401  -8.1098  -5.0667  -3.2088  -0.3710  -0.0215
     1.2146   2.1798

          k = 0.2083 0.4090 0.0000 ( 25276 PWs)   bands (ev):

   -24.3034 -24.1755 -24.1123 -24.0196 -23.9366 -23.8270 -23.7396 -23.7361
   -23.7158 -23.5970 -10.9275  -8.4640  -5.2614  -2.9990  -0.6818   0.1672
     1.5201   2.4167

          k = 0.2083 0.4571 0.0000 ( 25314 PWs)   bands (ev):

   -24.3160 -24.1768 -24.1129 -24.0218 -23.9273 -23.8366 -23.7376 -23.7375
   -23.7101 -23.5834 -10.7029  -8.7986  -5.4104  -2.7796  -0.9804   0.2269
     1.9958   2.5640

          k = 0.2083 0.5052 0.0000 ( 25325 PWs)   bands (ev):

   -24.3246 -24.1779 -24.1131 -24.0234 -23.9193 -23.8449 -23.7390 -23.7360
   -23.7061 -23.5739 -10.4861  -9.0907  -5.5107  -2.5699  -1.2446   0.2348
     2.4740   2.5317

          k = 0.2083 0.5533 0.0000 ( 25334 PWs)   bands (ev):

   -24.3289 -24.1785 -24.1132 -24.0242 -23.9143 -23.8500 -23.7397 -23.7353
   -23.7039 -23.5691 -10.3300  -9.2850  -5.5611  -2.4207  -1.4215   0.2318
     2.4266   2.9487

          k = 0.2500 0.4330 0.0000 ( 25322 PWs)   bands (ev):

   -24.3177 -24.1714 -24.1163 -24.0222 -23.9262 -23.8377 -23.7372 -23.7344
   -23.7154 -23.5817 -10.7081  -8.7787  -5.4571  -2.7841  -0.9637   0.5505
     1.6394   2.5151

          k = 0.2500 0.4811 0.0000 ( 25320 PWs)   bands (ev):

   -24.3282 -24.1680 -24.1196 -24.0242 -23.9160 -23.8482 -23.7353 -23.7343
   -23.7141 -23.5702 -10.4797  -9.0768  -5.6006  -2.5623  -1.2346   0.7528
     1.9704   2.3797

          k = 0.2500 0.5292 0.0000 ( 25351 PWs)   bands (ev):

   -24.3347 -24.1657 -24.1218 -24.0254 -23.9074 -23.8569 -23.7347 -23.7342
   -23.7129 -23.5631 -10.2694  -9.3298  -5.6879  -2.3601  -1.4668   0.8186
     2.2944   2.4078

          k = 0.2500 0.5774 0.0000 ( 25362 PWs)   bands (ev):

   -24.3368 -24.1649 -24.1226 -24.0258 -23.9037 -23.8606 -23.7349 -23.7338
   -23.7124 -23.5607 -10.1657  -9.4479  -5.7171  -2.2614  -1.5756   0.8321
     2.2655   2.6486

          k = 0.2917 0.5052 0.0000 ( 25348 PWs)   bands (ev):

   -24.3366 -24.1598 -24.1263 -24.0258 -23.9045 -23.8598 -23.7338 -23.7316
   -23.7173 -23.5611 -10.2479  -9.3450  -5.7318  -2.3384  -1.4825   1.1848
     2.0421   2.2491

          k = 0.2917 0.5533 0.0000 ( 25338 PWs)   bands (ev):

   -24.3408 -24.1537 -24.1316 -24.0267 -23.8950 -23.8694 -23.7330 -23.7300
   -23.7192 -23.5564 -10.0419  -9.5692  -5.7986  -2.1413  -1.6916   1.3922
     2.1821   2.2225

          k = 0.3333 0.5774 0.0000 ( 25344 PWs)   bands (ev):

   -24.3429 -24.1423 -24.1423 -24.0271 -23.8822 -23.8822 -23.7326 -23.7249
   -23.7249 -23.5541  -9.8074  -9.8074  -5.8362  -1.9173  -1.9173   1.8884
     1.8884   2.1440

     the Fermi energy is    -2.2722 ev

!    total energy              =    -326.39282632 Ry
     estimated scf accuracy    <       0.00000001 Ry
     smearing contrib. (-TS)   =       0.00026207 Ry
     internal energy E=F+TS    =    -326.39308838 Ry

     The total energy is F=E-TS. E is the sum of the following terms:
     one-electron contribution =    -882.88948763 Ry
     hartree contribution      =     448.59150677 Ry
     xc contribution           =     -95.07341129 Ry
     ewald contribution        =     202.97830377 Ry

     convergence has been achieved in   7 iterations

     Writing all to output data dir ../tmp/stanene.save/

     init_run     :     54.27s CPU     25.25s WALL (       1 calls)
     electrons    :   2193.16s CPU    938.55s WALL (       1 calls)

     Called by init_run:
     wfcinit      :     50.79s CPU     23.01s WALL (       1 calls)
     potinit      :      0.16s CPU      0.18s WALL (       1 calls)
     hinit0       :      0.67s CPU      0.68s WALL (       1 calls)

     Called by electrons:
     c_bands      :   1755.36s CPU    744.34s WALL (       7 calls)
     sum_band     :    371.47s CPU    161.86s WALL (       7 calls)
     v_of_rho     :      0.97s CPU      1.00s WALL (       8 calls)
     newd         :     67.68s CPU     32.45s WALL (       8 calls)
     mix_rho      :      0.14s CPU      0.15s WALL (       7 calls)

     Called by c_bands:
     init_us_2    :     22.12s CPU      6.63s WALL (     915 calls)
     init_us_2:cp :     22.11s CPU      6.63s WALL (     915 calls)
     cegterg      :   1698.26s CPU    726.83s WALL (     427 calls)

     Called by *egterg:
     cdiaghg      :     11.63s CPU      3.91s WALL (    2319 calls)
     h_psi        :   1354.46s CPU    625.39s WALL (    2380 calls)
     s_psi        :     44.70s CPU     11.90s WALL (    2380 calls)
     g_psi        :      5.02s CPU      1.63s WALL (    1892 calls)

     Called by h_psi:
     h_psi:calbec :    918.64s CPU    437.74s WALL (    2380 calls)
     vloc_psi     :    392.41s CPU    175.28s WALL (    2380 calls)
     add_vuspsi   :     39.29s CPU     10.91s WALL (    2380 calls)

     General routines
     calbec       :   1182.95s CPU    564.45s WALL (    2807 calls)
     fft          :      0.78s CPU      0.81s WALL (      88 calls)
     ffts         :      0.11s CPU      0.04s WALL (       7 calls)
     fftw         :    415.14s CPU    175.05s WALL (   57746 calls)

     Parallel routines

     PWSCF        :  37m27.72s CPU  16m 4.36s WALL


   This run was terminated on:  19:55:47  19Jun2024            

=------------------------------------------------------------------------------=
   JOB DONE.
=------------------------------------------------------------------------------=
