### Running on host: handarmsi

     Program PWSCF v.7.2 starts on 19Jun2024 at 19: 7: 8 

     This program is part of the open-source Quantum ESPRESSO suite
     for quantum simulation of materials; please cite
         "P. Giannozzi et al., J. Phys.:Condens. Matter 21 395502 (2009);
         "P. Giannozzi et al., J. Phys.:Condens. Matter 29 465901 (2017);
         "P. Giannozzi et al., J. Chem. Phys. 152 154105 (2020);
          URL http://www.quantum-espresso.org", 
     in publications or presentations arising from this work. More details at
     http://www.quantum-espresso.org/quote

     Parallel version (MPI), running on     1 processors

     MPI processes distributed on     1 nodes
     5999 MiB available memory on the printing compute node when the environment starts

     Reading input from sn_scf_ecutwfc-30.in

     Current dimensions of program PWSCF are:
     Max number of different atomic species (ntypx) = 10
     Max number of k-points (npk) =  40000
     Max angular momentum in pseudopotentials (lmaxx) =  4

     Subspace diagonalization in iterative solution of the eigenvalue problem:
     a serial algorithm will be used


     G-vector sticks info
     --------------------
     sticks:   dense  smooth     PW     G-vecs:    dense   smooth      PW
     Sum         649     649    199                56963    56963    9161

     Using Slab Decomposition



     bravais-lattice index     =            4
     lattice parameter (alat)  =       8.8439  a.u.
     unit-cell volume          =    2560.0529 (a.u.)^3
     number of atoms/cell      =            2
     number of atomic types    =            1
     number of electrons       =        28.00
     number of Kohn-Sham states=           18
     kinetic-energy cutoff     =      30.0000  Ry
     charge density cutoff     =     120.0000  Ry
     scf convergence threshold =      1.0E-06
     mixing beta               =       0.7000
     number of iterations used =            8  plain     mixing
     Exchange-correlation= SLA  PW   PBE  PBE
                           (   1   4   3   4   0   0   0)

     celldm(1)=   8.843918  celldm(2)=   0.000000  celldm(3)=   4.273504
     celldm(4)=   0.000000  celldm(5)=   0.000000  celldm(6)=   0.000000

     crystal axes: (cart. coord. in units of alat)
               a(1) = (   1.000000   0.000000   0.000000 )  
               a(2) = (  -0.500000   0.866025   0.000000 )  
               a(3) = (   0.000000   0.000000   4.273504 )  

     reciprocal axes: (cart. coord. in units 2 pi/alat)
               b(1) = (  1.000000  0.577350 -0.000000 )  
               b(2) = (  0.000000  1.154701  0.000000 )  
               b(3) = (  0.000000 -0.000000  0.234000 )  


     PseudoPot. # 1 for Sn read from file:
     ../pseudo/Sn_pbe_v1.uspp.F.UPF
     MD5 check sum: 4cf58ce39ec5d5d420df3dd08604eb00
     Pseudo is Ultrasoft + core correction, Zval = 14.0
     Generated by new atomic code, or converted to UPF format
     Using radial grid of  891 points,  6 beta functions with: 
                l(1) =   0
                l(2) =   0
                l(3) =   1
                l(4) =   1
                l(5) =   2
                l(6) =   2
     Q(r) pseudized with  6 coefficients,  rinner =    1.200   1.200   1.200
                                                       1.200   1.200

     atomic species   valence    mass     pseudopotential
        Sn            14.00   118.71000     Sn( 1.00)

     24 Sym. Ops., with inversion, found



   Cartesian axes

     site n.     atom                  positions (alat units)
         1           Sn  tau(   1) = (   0.0000000   0.5773503   2.1367521  )
         2           Sn  tau(   2) = (   0.5000000   0.2886751   2.1367521  )

     number of k points=    61  Methfessel-Paxton smearing, width (Ry)=  0.0200
                       cart. coord. in units 2pi/alat
        k(    1) = (   0.0000000   0.0000000   0.0000000), wk =   0.0034722
        k(    2) = (   0.0000000   0.0481125   0.0000000), wk =   0.0208333
        k(    3) = (   0.0000000   0.0962250   0.0000000), wk =   0.0208333
        k(    4) = (   0.0000000   0.1443376   0.0000000), wk =   0.0208333
        k(    5) = (   0.0000000   0.1924501   0.0000000), wk =   0.0208333
        k(    6) = (   0.0000000   0.2405626   0.0000000), wk =   0.0208333
        k(    7) = (   0.0000000   0.2886751   0.0000000), wk =   0.0208333
        k(    8) = (   0.0000000   0.3367877   0.0000000), wk =   0.0208333
        k(    9) = (   0.0000000   0.3849002   0.0000000), wk =   0.0208333
        k(   10) = (   0.0000000   0.4330127   0.0000000), wk =   0.0208333
        k(   11) = (   0.0000000   0.4811252   0.0000000), wk =   0.0208333
        k(   12) = (   0.0000000   0.5292377   0.0000000), wk =   0.0208333
        k(   13) = (   0.0000000  -0.5773503   0.0000000), wk =   0.0104167
        k(   14) = (   0.0416667   0.0721688   0.0000000), wk =   0.0208333
        k(   15) = (   0.0416667   0.1202813   0.0000000), wk =   0.0416667
        k(   16) = (   0.0416667   0.1683938   0.0000000), wk =   0.0416667
        k(   17) = (   0.0416667   0.2165064   0.0000000), wk =   0.0416667
        k(   18) = (   0.0416667   0.2646189   0.0000000), wk =   0.0416667
        k(   19) = (   0.0416667   0.3127314   0.0000000), wk =   0.0416667
        k(   20) = (   0.0416667   0.3608439   0.0000000), wk =   0.0416667
        k(   21) = (   0.0416667   0.4089564   0.0000000), wk =   0.0416667
        k(   22) = (   0.0416667   0.4570690   0.0000000), wk =   0.0416667
        k(   23) = (   0.0416667   0.5051815   0.0000000), wk =   0.0416667
        k(   24) = (   0.0416667   0.5532940   0.0000000), wk =   0.0416667
        k(   25) = (   0.0833333   0.1443376   0.0000000), wk =   0.0208333
        k(   26) = (   0.0833333   0.1924501   0.0000000), wk =   0.0416667
        k(   27) = (   0.0833333   0.2405626   0.0000000), wk =   0.0416667
        k(   28) = (   0.0833333   0.2886751   0.0000000), wk =   0.0416667
        k(   29) = (   0.0833333   0.3367877   0.0000000), wk =   0.0416667
        k(   30) = (   0.0833333   0.3849002   0.0000000), wk =   0.0416667
        k(   31) = (   0.0833333   0.4330127   0.0000000), wk =   0.0416667
        k(   32) = (   0.0833333   0.4811252   0.0000000), wk =   0.0416667
        k(   33) = (   0.0833333   0.5292377   0.0000000), wk =   0.0416667
        k(   34) = (   0.0833333   0.5773503   0.0000000), wk =   0.0208333
        k(   35) = (   0.1250000   0.2165064   0.0000000), wk =   0.0208333
        k(   36) = (   0.1250000   0.2646189   0.0000000), wk =   0.0416667
        k(   37) = (   0.1250000   0.3127314   0.0000000), wk =   0.0416667
        k(   38) = (   0.1250000   0.3608439   0.0000000), wk =   0.0416667
        k(   39) = (   0.1250000   0.4089564   0.0000000), wk =   0.0416667
        k(   40) = (   0.1250000   0.4570690   0.0000000), wk =   0.0416667
        k(   41) = (   0.1250000   0.5051815   0.0000000), wk =   0.0416667
        k(   42) = (   0.1250000   0.5532940   0.0000000), wk =   0.0416667
        k(   43) = (   0.1666667   0.2886751   0.0000000), wk =   0.0208333
        k(   44) = (   0.1666667   0.3367877   0.0000000), wk =   0.0416667
        k(   45) = (   0.1666667   0.3849002   0.0000000), wk =   0.0416667
        k(   46) = (   0.1666667   0.4330127   0.0000000), wk =   0.0416667
        k(   47) = (   0.1666667   0.4811252   0.0000000), wk =   0.0416667
        k(   48) = (   0.1666667   0.5292377   0.0000000), wk =   0.0416667
        k(   49) = (   0.1666667   0.5773503   0.0000000), wk =   0.0208333
        k(   50) = (   0.2083333   0.3608439   0.0000000), wk =   0.0208333
        k(   51) = (   0.2083333   0.4089564   0.0000000), wk =   0.0416667
        k(   52) = (   0.2083333   0.4570690   0.0000000), wk =   0.0416667
        k(   53) = (   0.2083333   0.5051815   0.0000000), wk =   0.0416667
        k(   54) = (   0.2083333   0.5532940   0.0000000), wk =   0.0416667
        k(   55) = (   0.2500000   0.4330127   0.0000000), wk =   0.0208333
        k(   56) = (   0.2500000   0.4811252   0.0000000), wk =   0.0416667
        k(   57) = (   0.2500000   0.5292377   0.0000000), wk =   0.0416667
        k(   58) = (   0.2500000   0.5773503   0.0000000), wk =   0.0208333
        k(   59) = (   0.2916667   0.5051815   0.0000000), wk =   0.0208333
        k(   60) = (   0.2916667   0.5532940   0.0000000), wk =   0.0416667
        k(   61) = (   0.3333333   0.5773503   0.0000000), wk =   0.0069444

     Dense  grid:    56963 G-vectors     FFT dimensions: (  32,  32, 135)

     Estimated max dynamical RAM per process >     322.34 MB

     Check: negative core charge=   -0.000001

     Initial potential from superposition of free atoms

     starting charge      25.9999, renormalised to      28.0000

     negative rho (up, down):  2.381E-03 0.000E+00
     Starting wfcs are   18 randomized atomic wfcs

     total cpu time spent up to now is        3.8 secs

     Self-consistent Calculation

     iteration #  1     ecut=    30.00 Ry     beta= 0.70
     Davidson diagonalization with overlap
     ethr =  1.00E-02,  avg # of iterations =  7.4

     negative rho (up, down):  6.575E-04 0.000E+00

     total cpu time spent up to now is       15.8 secs

     total energy              =    -325.41958306 Ry
     estimated scf accuracy    <       2.50190754 Ry

     iteration #  2     ecut=    30.00 Ry     beta= 0.70
     Davidson diagonalization with overlap
     ethr =  8.94E-03,  avg # of iterations =  2.1

     negative rho (up, down):  1.014E-03 0.000E+00

     total cpu time spent up to now is       26.9 secs

     total energy              =    -326.32441193 Ry
     estimated scf accuracy    <       0.38119908 Ry

     iteration #  3     ecut=    30.00 Ry     beta= 0.70
     Davidson diagonalization with overlap
     ethr =  1.36E-03,  avg # of iterations =  2.3

     negative rho (up, down):  1.430E-03 0.000E+00

     total cpu time spent up to now is       36.2 secs

     total energy              =    -326.38711871 Ry
     estimated scf accuracy    <       0.00469291 Ry

     iteration #  4     ecut=    30.00 Ry     beta= 0.70
     Davidson diagonalization with overlap
     ethr =  1.68E-05,  avg # of iterations =  8.9

     negative rho (up, down):  1.455E-03 0.000E+00

     total cpu time spent up to now is       48.2 secs

     total energy              =    -326.38867785 Ry
     estimated scf accuracy    <       0.00054160 Ry

     iteration #  5     ecut=    30.00 Ry     beta= 0.70
     Davidson diagonalization with overlap
     ethr =  1.93E-06,  avg # of iterations =  4.7

     negative rho (up, down):  1.451E-03 0.000E+00

     total cpu time spent up to now is       70.7 secs

     End of self-consistent calculation

          k = 0.0000 0.0000 0.0000 (  7139 PWs)   bands (ev):

   -24.1178 -24.1023 -24.1023 -24.0023 -24.0023 -23.8386 -23.8386 -23.7703
   -23.7703 -23.7098 -12.2183  -4.2987  -3.6887  -3.3514  -3.3514   0.6698
     0.6698   0.9405

          k = 0.0000 0.0481 0.0000 (  7145 PWs)   bands (ev):

   -24.1188 -24.1069 -24.1054 -24.0027 -24.0016 -23.8343 -23.8335 -23.7711
   -23.7700 -23.7097 -12.2035  -4.2833  -4.1316  -3.3851  -2.9270   0.6499
     0.7335   0.9644

          k = 0.0000 0.0962 0.0000 (  7129 PWs)   bands (ev):

   -24.1257 -24.1195 -24.1098 -24.0038 -23.9996 -23.8227 -23.8195 -23.7735
   -23.7688 -23.7091 -12.1591  -4.7107  -4.2373  -3.4793  -2.4137   0.6234
     0.9175   1.0263

          k = 0.0000 0.1443 0.0000 (  7121 PWs)   bands (ev):

   -24.1416 -24.1374 -24.1100 -24.0056 -23.9963 -23.8068 -23.7994 -23.7773
   -23.7671 -23.7075 -12.0852  -5.2914  -4.1611  -3.6171  -1.9785   0.6593
     1.1184   1.2047

          k = 0.0000 0.1925 0.0000 (  7115 PWs)   bands (ev):

   -24.1616 -24.1580 -24.1084 -24.0079 -23.9918 -23.7899 -23.7824 -23.7761
   -23.7648 -23.7042 -11.9823  -5.8612  -4.0553  -3.7793  -1.6777   0.8270
     1.2441   1.4097

          k = 0.0000 0.2406 0.0000 (  7101 PWs)   bands (ev):

   -24.1827 -24.1792 -24.1061 -24.0104 -23.9863 -23.7886 -23.7754 -23.7623
   -23.7516 -23.6979 -11.8511  -6.4137  -3.9492  -3.9211  -1.5319   1.0169
     1.1403   1.4252

          k = 0.0000 0.2887 0.0000 (  7087 PWs)   bands (ev):

   -24.2033 -24.1995 -24.1035 -24.0132 -23.9799 -23.7957 -23.7653 -23.7596
   -23.7278 -23.6878 -11.6928  -6.9435  -4.1140  -3.7604  -1.5043   0.6095
     1.4585   1.7745

          k = 0.0000 0.3368 0.0000 (  7079 PWs)   bands (ev):

   -24.2221 -24.2180 -24.1008 -24.0158 -23.9731 -23.8034 -23.7598 -23.7569
   -23.7059 -23.6751 -11.5095  -7.4457  -4.2647  -3.5758  -1.5399   0.2021
     1.6978   2.3225

          k = 0.0000 0.3849 0.0000 (  7074 PWs)   bands (ev):

   -24.2385 -24.2339 -24.0982 -24.0182 -23.9661 -23.8111 -23.7574 -23.7545
   -23.6867 -23.6617 -11.3053  -7.9138  -4.3948  -3.3720  -1.5989  -0.1924
     1.9403   2.7574

          k = 0.0000 0.4330 0.0000 (  7102 PWs)   bands (ev):

   -24.2518 -24.2468 -24.0959 -24.0203 -23.9595 -23.8183 -23.7566 -23.7525
   -23.6711 -23.6498 -11.0880  -8.3380  -4.4998  -3.1576  -1.6590  -0.5599
     2.2050   2.9945

          k = 0.0000 0.4811 0.0000 (  7100 PWs)   bands (ev):

   -24.2615 -24.2561 -24.0941 -24.0218 -23.9540 -23.8243 -23.7566 -23.7509
   -23.6596 -23.6405 -10.8745  -8.7004  -4.5768  -2.9493  -1.7079  -0.8797
     2.4943   3.2345

          k = 0.0000 0.5292 0.0000 (  7108 PWs)   bands (ev):

   -24.2675 -24.2619 -24.0930 -24.0228 -23.9502 -23.8284 -23.7568 -23.7500
   -23.6526 -23.6346 -10.7008  -8.9638  -4.6237  -2.7821  -1.7393  -1.1148
     2.8022   3.4346

          k = 0.0000-0.5774 0.0000 (  7118 PWs)   bands (ev):

   -24.2695 -24.2638 -24.0926 -24.0231 -23.9489 -23.8298 -23.7569 -23.7496
   -23.6502 -23.6326 -10.6293  -9.0652  -4.6395  -2.7140  -1.7501  -1.2057
     3.0360   3.2981

          k = 0.0417 0.0722 0.0000 (  7139 PWs)   bands (ev):

   -24.1238 -24.1119 -24.1116 -24.0035 -24.0003 -23.8264 -23.8240 -23.7727
   -23.7692 -23.7093 -12.1739  -4.5535  -4.2526  -3.4528  -2.5424   0.6186
     0.8656   1.0064

          k = 0.0417 0.1203 0.0000 (  7131 PWs)   bands (ev):

   -24.1390 -24.1249 -24.1123 -24.0050 -23.9976 -23.8127 -23.8071 -23.7758
   -23.7677 -23.7082 -12.1147  -5.0836  -4.1915  -3.5775  -2.1020   0.5996
     1.0801   1.1225

          k = 0.0417 0.1684 0.0000 (  7123 PWs)   bands (ev):

   -24.1595 -24.1420 -24.1109 -24.0070 -23.9936 -23.7962 -23.7860 -23.7803
   -23.7657 -23.7056 -12.0263  -5.6333  -4.1004  -3.7374  -1.7338   0.6655
     1.1843   1.4793

          k = 0.0417 0.2165 0.0000 (  7110 PWs)   bands (ev):

   -24.1818 -24.1609 -24.1087 -24.0095 -23.9885 -23.7861 -23.7804 -23.7632
   -23.7631 -23.7004 -11.9092  -6.1790  -3.9804  -3.9128  -1.5011   0.8777
     1.1873   1.3224

          k = 0.0417 0.2646 0.0000 (  7091 PWs)   bands (ev):

   -24.2040 -24.1800 -24.1061 -24.0122 -23.9825 -23.7928 -23.7681 -23.7605
   -23.7404 -23.6911 -11.7643  -6.7100  -4.0881  -3.8328  -1.4093   0.7913
     1.2291   1.5148

          k = 0.0417 0.3127 0.0000 (  7083 PWs)   bands (ev):

   -24.2248 -24.1980 -24.1033 -24.0149 -23.9757 -23.8004 -23.7608 -23.7578
   -23.7193 -23.6780 -11.5932  -7.2191  -4.2523  -3.6598  -1.4119   0.3873
     1.5694   1.8690

          k = 0.0417 0.3608 0.0000 (  7083 PWs)   bands (ev):

   -24.2433 -24.2140 -24.1006 -24.0175 -23.9687 -23.8082 -23.7573 -23.7553
   -23.7005 -23.6630 -11.3988  -7.6998  -4.3977  -3.4649  -1.4587  -0.0112
     1.8231   2.4106

          k = 0.0417 0.4090 0.0000 (  7094 PWs)   bands (ev):

   -24.2587 -24.2275 -24.0981 -24.0198 -23.9617 -23.8158 -23.7560 -23.7530
   -23.6847 -23.6488 -11.1866  -8.1439  -4.5191  -3.2544  -1.5180  -0.3912
     2.0794   2.8756

          k = 0.0417 0.4571 0.0000 (  7091 PWs)   bands (ev):

   -24.2707 -24.2380 -24.0961 -24.0216 -23.9554 -23.8227 -23.7559 -23.7512
   -23.6723 -23.6369 -10.9679  -8.5380  -4.6128  -3.0398  -1.5722  -0.7364
     2.3574   3.1031

          k = 0.0417 0.5052 0.0000 (  7111 PWs)   bands (ev):

   -24.2788 -24.2451 -24.0946 -24.0229 -23.9505 -23.8279 -23.7561 -23.7499
   -23.6639 -23.6285 -10.7675  -8.8561  -4.6764  -2.8456  -1.6122  -1.0192
     2.6579   3.2962

          k = 0.0417 0.5533 0.0000 (  7110 PWs)   bands (ev):

   -24.2829 -24.2488 -24.0938 -24.0236 -23.9478 -23.8308 -23.7563 -23.7492
   -23.6596 -23.6241 -10.6355  -9.0472  -4.7086  -2.7194  -1.6332  -1.1903
     2.9615   3.3945

          k = 0.0833 0.1443 0.0000 (  7121 PWs)   bands (ev):

   -24.1593 -24.1338 -24.1137 -24.0068 -23.9941 -23.7984 -23.7896 -23.7797
   -23.7659 -23.7060 -12.0410  -5.5477  -4.1155  -3.7369  -1.7357   0.5770
     1.1645   1.4719

          k = 0.0833 0.1925 0.0000 (  7105 PWs)   bands (ev):

   -24.1822 -24.1476 -24.1126 -24.0091 -23.9895 -23.7849 -23.7826 -23.7703
   -23.7636 -23.7011 -11.9383  -6.0443  -4.0102  -3.9273  -1.4154   0.6342
     1.2784   1.2808

          k = 0.0833 0.2406 0.0000 (  7089 PWs)   bands (ev):

   -24.2055 -24.1634 -24.1105 -24.0118 -23.9837 -23.7914 -23.7686 -23.7609
   -23.7515 -23.6918 -11.8074  -6.5470  -4.1247  -3.8765  -1.2118   0.8385
     0.9136   1.4243

          k = 0.0833 0.2887 0.0000 (  7094 PWs)   bands (ev):

   -24.2279 -24.1793 -24.1079 -24.0147 -23.9770 -23.7987 -23.7595 -23.7581
   -23.7337 -23.6776 -11.6493  -7.0416  -4.3135  -3.7163  -1.1363   0.5283
     1.1985   1.6080

          k = 0.0833 0.3368 0.0000 (  7097 PWs)   bands (ev):

   -24.2482 -24.1941 -24.1052 -24.0175 -23.9698 -23.8067 -23.7554 -23.7552
   -23.7169 -23.6608 -11.4662  -7.5184  -4.4838  -3.5321  -1.1445   0.1390
     1.6345   1.8659

          k = 0.0833 0.3849 0.0000 (  7095 PWs)   bands (ev):

   -24.2658 -24.2071 -24.1026 -24.0200 -23.9624 -23.8148 -23.7537 -23.7529
   -23.7019 -23.6442 -11.2619  -7.9684  -4.6292  -3.3284  -1.1893  -0.2416
     1.9666   2.3278

          k = 0.0833 0.4330 0.0000 (  7107 PWs)   bands (ev):

   -24.2800 -24.2178 -24.1003 -24.0222 -23.9553 -23.8225 -23.7536 -23.7508
   -23.6895 -23.6298 -11.0440  -8.3805  -4.7456  -3.1135  -1.2416  -0.5994
     2.2459   2.9640

          k = 0.0833 0.4811 0.0000 (  7098 PWs)   bands (ev):

   -24.2904 -24.2256 -24.0985 -24.0238 -23.9492 -23.8290 -23.7541 -23.7492
   -23.6803 -23.6188 -10.8287  -8.7360  -4.8303  -2.9036  -1.2863  -0.9139
     2.5379   3.1001

          k = 0.0833 0.5292 0.0000 (  7100 PWs)   bands (ev):

   -24.2967 -24.2304 -24.0974 -24.0248 -23.9451 -23.8334 -23.7545 -23.7482
   -23.6746 -23.6120 -10.6521  -8.9975  -4.8817  -2.7336  -1.3156  -1.1477
     2.8450   3.1511

          k = 0.0833 0.5774 0.0000 (  7090 PWs)   bands (ev):

   -24.2989 -24.2320 -24.0970 -24.0251 -23.9436 -23.8350 -23.7546 -23.7478
   -23.6727 -23.6096 -10.5786  -9.0993  -4.8990  -2.6637  -1.3257  -1.2391
     3.0752   3.1596

          k = 0.1250 0.2165 0.0000 (  7095 PWs)   bands (ev):

   -24.2060 -24.1564 -24.1132 -24.0118 -23.9840 -23.7909 -23.7679 -23.7610
   -23.7565 -23.6919 -11.8217  -6.4873  -4.1483  -3.8911  -1.0996   0.6531
     0.9573   1.4031

          k = 0.1250 0.2646 0.0000 (  7090 PWs)   bands (ev):

   -24.2295 -24.1673 -24.1124 -24.0147 -23.9775 -23.7981 -23.7582 -23.7557
   -23.7448 -23.6771 -11.6774  -6.9415  -4.3705  -3.7446  -0.8694   0.6058
     0.8066   1.5592

          k = 0.1250 0.3127 0.0000 (  7100 PWs)   bands (ev):

   -24.2513 -24.1788 -24.1106 -24.0177 -23.9702 -23.8061 -23.7553 -23.7505
   -23.7314 -23.6589 -11.5068  -7.3929  -4.5764  -3.5726  -0.7666   0.2406
     1.1340   1.7474

          k = 0.1250 0.3608 0.0000 (  7093 PWs)   bands (ev):

   -24.2707 -24.1897 -24.1085 -24.0205 -23.9623 -23.8146 -23.7525 -23.7493
   -23.7177 -23.6405 -11.3127  -7.8307  -4.7559  -3.3785  -0.7570  -0.1264
     1.5938   1.9721

          k = 0.1250 0.4090 0.0000 (  7098 PWs)   bands (ev):

   -24.2869 -24.1993 -24.1063 -24.0230 -23.9544 -23.8231 -23.7501 -23.7497
   -23.7057 -23.6240 -11.0999  -8.2442  -4.9035  -3.1677  -0.7883  -0.4826
     2.0876   2.2728

          k = 0.1250 0.4571 0.0000 (  7109 PWs)   bands (ev):

   -24.2994 -24.2068 -24.1045 -24.0250 -23.9470 -23.8309 -23.7505 -23.7482
   -23.6962 -23.6106 -10.8791  -8.6189  -5.0162  -2.9513  -0.8284  -0.8124
     2.4390   2.8995

          k = 0.1250 0.5052 0.0000 (  7109 PWs)   bands (ev):

   -24.3080 -24.2121 -24.1031 -24.0264 -23.9412 -23.8371 -23.7514 -23.7468
   -23.6896 -23.6013 -10.6736  -8.9284  -5.0921  -2.7523  -1.0888  -0.8612
     2.7447   2.8951

          k = 0.1250 0.5533 0.0000 (  7097 PWs)   bands (ev):

   -24.3123 -24.2147 -24.1024 -24.0271 -23.9379 -23.8406 -23.7518 -23.7461
   -23.6863 -23.5966 -10.5353  -9.1192  -5.1302  -2.6200  -1.2604  -0.8791
     2.8798   3.0406

          k = 0.1667 0.2887 0.0000 (  7094 PWs)   bands (ev):

   -24.2523 -24.1727 -24.1134 -24.0178 -23.9702 -23.8060 -23.7552 -23.7428
   -23.7425 -23.6582 -11.5204  -7.3474  -4.6147  -3.5862  -0.5583   0.2769
     0.8693   1.7261

          k = 0.1667 0.3368 0.0000 (  7097 PWs)   bands (ev):

   -24.2732 -24.1789 -24.1133 -24.0208 -23.9621 -23.8147 -23.7523 -23.7428
   -23.7304 -23.6385 -11.3382  -7.7535  -4.8366  -3.4037  -0.3664  -0.0627
     1.1094   1.9244

          k = 0.1667 0.3849 0.0000 (  7103 PWs)   bands (ev):

   -24.2911 -24.1852 -24.1125 -24.0236 -23.9534 -23.8239 -23.7496 -23.7440
   -23.7193 -23.6203 -11.1342  -8.1495  -5.0251  -3.2009  -0.4026  -0.3025
     1.5287   2.1526

          k = 0.1667 0.4330 0.0000 (  7100 PWs)   bands (ev):

   -24.3056 -24.1908 -24.1114 -24.0260 -23.9449 -23.8329 -23.7473 -23.7456
   -23.7102 -23.6049 -10.9147  -8.5236  -5.1748  -2.9849  -0.7308  -0.3050
     2.0553   2.4101

          k = 0.1667 0.4811 0.0000 (  7114 PWs)   bands (ev):

   -24.3163 -24.1951 -24.1104 -24.0278 -23.9373 -23.8408 -23.7470 -23.7455
   -23.7034 -23.5933 -10.6941  -8.8575  -5.2828  -2.7701  -1.0286  -0.3267
     2.6109   2.6825

          k = 0.1667 0.5292 0.0000 (  7107 PWs)   bands (ev):

   -24.3228 -24.1979 -24.1096 -24.0289 -23.9318 -23.8466 -23.7479 -23.7444
   -23.6992 -23.5861 -10.5070  -9.1136  -5.3480  -2.5902  -1.2596  -0.3456
     2.6346   2.9677

          k = 0.1667 0.5774 0.0000 (  7114 PWs)   bands (ev):

   -24.3250 -24.1988 -24.1094 -24.0293 -23.9297 -23.8487 -23.7483 -23.7441
   -23.6978 -23.5837 -10.4262  -9.2177  -5.3698  -2.5132  -1.3538  -0.3528
     2.6173   3.1470

          k = 0.2083 0.3608 0.0000 (  7102 PWs)   bands (ev):

   -24.2926 -24.1795 -24.1155 -24.0239 -23.9531 -23.8242 -23.7493 -23.7396
   -23.7265 -23.6190 -11.1457  -8.1152  -5.0704  -3.2121  -0.3739  -0.0260
     1.2085   2.1333

          k = 0.2083 0.4090 0.0000 (  7104 PWs)   bands (ev):

   -24.3088 -24.1806 -24.1168 -24.0266 -23.9436 -23.8341 -23.7467 -23.7402
   -23.7203 -23.6019 -10.9330  -8.4695  -5.2651  -3.0023  -0.6848   0.1627
     1.5141   2.3710

          k = 0.2083 0.4571 0.0000 (  7088 PWs)   bands (ev):

   -24.3214 -24.1819 -24.1175 -24.0288 -23.9343 -23.8437 -23.7446 -23.7417
   -23.7147 -23.5883 -10.7085  -8.8041  -5.4141  -2.7827  -0.9835   0.2224
     1.9899   2.5432

          k = 0.2083 0.5052 0.0000 (  7091 PWs)   bands (ev):

   -24.3300 -24.1830 -24.1178 -24.0304 -23.9263 -23.8519 -23.7431 -23.7430
   -23.7106 -23.5789 -10.4917  -9.0962  -5.5144  -2.5729  -1.2477   0.2302
     2.4561   2.5263

          k = 0.2083 0.5533 0.0000 (  7109 PWs)   bands (ev):

   -24.3343 -24.1836 -24.1178 -24.0312 -23.9214 -23.8570 -23.7438 -23.7424
   -23.7084 -23.5741 -10.3356  -9.2905  -5.5648  -2.4237  -1.4248   0.2271
     2.4098   2.9413

          k = 0.2500 0.4330 0.0000 (  7090 PWs)   bands (ev):

   -24.3231 -24.1765 -24.1208 -24.0292 -23.9332 -23.8448 -23.7443 -23.7385
   -23.7200 -23.5866 -10.7136  -8.7841  -5.4608  -2.7872  -0.9667   0.5462
     1.6335   2.4948

          k = 0.2500 0.4811 0.0000 (  7098 PWs)   bands (ev):

   -24.3336 -24.1730 -24.1242 -24.0312 -23.9230 -23.8552 -23.7424 -23.7384
   -23.7186 -23.5752 -10.4853  -9.0823  -5.6043  -2.5654  -1.2375   0.7484
     1.9650   2.3622

          k = 0.2500 0.5292 0.0000 (  7101 PWs)   bands (ev):

   -24.3401 -24.1707 -24.1265 -24.0324 -23.9145 -23.8639 -23.7412 -23.7388
   -23.7173 -23.5681 -10.2749  -9.3353  -5.6916  -2.3630  -1.4698   0.8141
     2.2779   2.4030

          k = 0.2500 0.5774 0.0000 (  7112 PWs)   bands (ev):

   -24.3422 -24.1699 -24.1273 -24.0328 -23.9108 -23.8677 -23.7409 -23.7390
   -23.7168 -23.5657 -10.1713  -9.4534  -5.7209  -2.2643  -1.5787   0.8276
     2.2493   2.6441

          k = 0.2917 0.5052 0.0000 (  7102 PWs)   bands (ev):

   -24.3420 -24.1648 -24.1310 -24.0328 -23.9116 -23.8668 -23.7409 -23.7358
   -23.7217 -23.5660 -10.2535  -9.3505  -5.7355  -2.3414  -1.4854   1.1805
     2.0370   2.2327

          k = 0.2917 0.5533 0.0000 (  7100 PWs)   bands (ev):

   -24.3462 -24.1587 -24.1363 -24.0337 -23.9020 -23.8764 -23.7400 -23.7342
   -23.7235 -23.5614 -10.0475  -9.5747  -5.8023  -2.1442  -1.6945   1.3879
     2.1662   2.2181

          k = 0.3333 0.5774 0.0000 (  7128 PWs)   bands (ev):

   -24.3483 -24.1471 -24.1471 -24.0342 -23.8892 -23.8892 -23.7396 -23.7291
   -23.7291 -23.5591  -9.8130  -9.8129  -5.8399  -1.9202  -1.9202   1.8842
     1.8843   2.1282

     the Fermi energy is    -2.2756 ev

!    total energy              =    -326.38880073 Ry
     estimated scf accuracy    <       0.00000055 Ry
     smearing contrib. (-TS)   =       0.00026261 Ry
     internal energy E=F+TS    =    -326.38906335 Ry

     The total energy is F=E-TS. E is the sum of the following terms:
     one-electron contribution =    -882.87252537 Ry
     hartree contribution      =     448.57996657 Ry
     xc contribution           =     -95.07480829 Ry
     ewald contribution        =     202.97830375 Ry

     convergence has been achieved in   5 iterations

     Writing all to output data dir ../tmp/stanene.save/

     init_run     :     11.43s CPU      3.76s WALL (       1 calls)
     electrons    :    214.25s CPU     66.94s WALL (       1 calls)

     Called by init_run:
     wfcinit      :     10.96s CPU      3.35s WALL (       1 calls)
     potinit      :      0.05s CPU      0.05s WALL (       1 calls)
     hinit0       :      0.26s CPU      0.26s WALL (       1 calls)

     Called by electrons:
     c_bands      :    179.82s CPU     53.98s WALL (       5 calls)
     sum_band     :     32.58s CPU     11.98s WALL (       5 calls)
     v_of_rho     :      0.22s CPU      0.19s WALL (       6 calls)
     newd         :      1.66s CPU      0.83s WALL (       6 calls)
     mix_rho      :      0.04s CPU      0.02s WALL (       5 calls)

     Called by c_bands:
     init_us_2    :      4.26s CPU      1.09s WALL (     671 calls)
     init_us_2:cp :      4.25s CPU      1.09s WALL (     671 calls)
     cegterg      :    168.55s CPU     51.02s WALL (     305 calls)

     Called by *egterg:
     cdiaghg      :      2.94s CPU      0.71s WALL (    1848 calls)
     h_psi        :    152.11s CPU     46.70s WALL (    1909 calls)
     s_psi        :      2.54s CPU      0.71s WALL (    1909 calls)
     g_psi        :      1.33s CPU      0.29s WALL (    1543 calls)

     Called by h_psi:
     h_psi:calbec :     16.43s CPU      7.33s WALL (    1909 calls)
     vloc_psi     :    132.19s CPU     38.40s WALL (    1909 calls)
     add_vuspsi   :      2.59s CPU      0.74s WALL (    1909 calls)

     General routines
     calbec       :     27.39s CPU     12.66s WALL (    2214 calls)
     fft          :      0.20s CPU      0.20s WALL (      66 calls)
     ffts         :      0.03s CPU      0.01s WALL (       5 calls)
     fftw         :    130.96s CPU     38.13s WALL (   42812 calls)

     Parallel routines

     PWSCF        :   3m45.91s CPU   1m10.97s WALL


   This run was terminated on:  19: 8:19  19Jun2024            

=------------------------------------------------------------------------------=
   JOB DONE.
=------------------------------------------------------------------------------=
