
     Program BANDS v.7.2 starts on 28Jun2024 at 23:50:31 

     This program is part of the open-source Quantum ESPRESSO suite
     for quantum simulation of materials; please cite
         "P. Giannozzi et al., J. Phys.:Condens. Matter 21 395502 (2009);
         "P. Giannozzi et al., J. Phys.:Condens. Matter 29 465901 (2017);
         "P. Giannozzi et al., J. Chem. Phys. 152 154105 (2020);
          URL http://www.quantum-espresso.org", 
     in publications or presentations arising from this work. More details at
     http://www.quantum-espresso.org/quote

     Parallel version (MPI), running on     6 processors

     MPI processes distributed on     1 nodes
     R & G space division:  proc/nbgrp/npool/nimage =       6
     6040 MiB available memory on the printing compute node when the environment starts


     Reading xml data from directory:

     ../tmp/stanene.save/
     file Sn.rel-pbe-dn-kjpaw_psl.1.0.0.UPF: wavefunction(s)  5S 5P 5P 4D 4D renormalized

     IMPORTANT: XC functional enforced from input :
     Exchange-correlation= PBE
                           (   1   4   3   4   0   0   0)
     Any further DFT definition will be discarded
     Please, verify this is what you really want


     Parallelization info
     --------------------
     sticks:   dense  smooth     PW     G-vecs:    dense   smooth      PW
     Min         431     214     61                75909    26818    4015
     Max         432     215     62                75924    26841    4025
     Sum        2587    1285    367               455489   160939   24117

     Using Slab Decomposition


     negative rho (up, down):  3.305E-04 0.000E+00
     Reading collected, re-writing distributed wavefunctions
     high-symmetry point:  0.0000 0.0000 0.0000   x coordinate   0.0000
     high-symmetry point:  0.6667 0.0000 0.0000   x coordinate   0.6667
     high-symmetry point:  0.5000 0.2887 0.0000   x coordinate   1.0000
     high-symmetry point:  0.0000 0.0000 0.0000   x coordinate   1.5774

     Plottable bands (eV) written to file stanene.bands.gnu
     Bands written to file stanene.bands

 **************************************************************************

                    xk=(   0.00000,   0.00000,   0.00000  )

     double point group D_6h(6/mmm)
     there are 18 classes and  6 irreducible representations
     the character table:

       E     -E    2C6   -2C6  2C3   -2C3  C2     3C2' 3C2''  i    -i    2S3  
                                           -C2   -3C2' -3C2'                  
G_7+   2.00 -2.00  1.73 -1.73  1.00 -1.00  0.00  0.00  0.00  2.00 -2.00  1.73
G_8+   2.00 -2.00 -1.73  1.73  1.00 -1.00  0.00  0.00  0.00  2.00 -2.00 -1.73
G_9+   2.00 -2.00  0.00  0.00 -2.00  2.00  0.00  0.00  0.00  2.00 -2.00  0.00
G_7-   2.00 -2.00  1.73 -1.73  1.00 -1.00  0.00  0.00  0.00 -2.00  2.00 -1.73
G_8-   2.00 -2.00 -1.73  1.73  1.00 -1.00  0.00  0.00  0.00 -2.00  2.00  1.73
G_9-   2.00 -2.00  0.00  0.00 -2.00  2.00  0.00  0.00  0.00 -2.00  2.00  0.00

       -2S3  2S6   -2S6   s_h   3s_v  3s_d
                         -s_h  -3s_v -3s_d
G_7+  -1.73  1.00 -1.00  0.00  0.00  0.00
G_8+   1.73  1.00 -1.00  0.00  0.00  0.00
G_9+   0.00 -2.00  2.00  0.00  0.00  0.00
G_7-   1.73 -1.00  1.00  0.00  0.00  0.00
G_8-  -1.73 -1.00  1.00  0.00  0.00  0.00
G_9-   0.00  2.00 -2.00  0.00  0.00  0.00

     the symmetry operations in each class and the name of the first element:

     E             1
                                                                 
     -E           -1
                                                                 
     2C6           5    6
                                                                 
     -2C6         -5   -6
                                                                 
     2C3           7    8
                                                                 
     -2C3         -7   -8
                                                                 
     C2   -C2      2   -2
                                                                 
      3C2'-3C2'    4   -4   12   11  -11  -12
                                                                 
     3C2''-3C2'    3   -3   -9   10  -10    9
                                                                 
      i           13
                                                                 
     -i          -13
                                                                 
     2S3          17   18
                                                                 
     -2S3        -17  -18
                                                                 
     2S6          19   20
                                                                 
     -2S6        -19  -20
                                                                 
      s_h -s_h    14  -14
                                                                 
      3s_v-3s_v   16  -16   24   23  -23  -24
                                                                 
      3s_d-3s_d   15  -15  -21   22  -22   21
                                                                 

     Band symmetry, D_6h(6/mmm) double point group:

     e(  1 -  2) =    -24.61553  eV     2   --> G_9+           
     e(  3 -  4) =    -24.51186  eV     2   --> G_7+           
     e(  5 -  6) =    -24.47768  eV     2   --> G_8-           
     e(  7 -  8) =    -24.44792  eV     2   --> G_9-           
     e(  9 - 10) =    -23.64359  eV     2   --> G_8+           
     e( 11 - 12) =    -23.50316  eV     2   --> G_9-           
     e( 13 - 14) =    -23.48983  eV     2   --> G_7+           
     e( 15 - 16) =    -23.37306  eV     2   --> G_7-           
     e( 17 - 18) =    -23.35538  eV     2   --> G_9+           
     e( 19 - 20) =    -23.34426  eV     2   --> G_8-           
     e( 21 - 22) =    -12.18042  eV     2   --> G_7+           
     e( 23 - 24) =     -4.29016  eV     2   --> G_7-           
     e( 25 - 26) =     -3.66742  eV     2   --> G_8-           
     e( 27 - 28) =     -3.58957  eV     2   --> G_8+           
     e( 29 - 30) =     -3.11546  eV     2   --> G_9+           
     e( 31 - 32) =      0.56559  eV     2   --> G_7-           
     e( 33 - 34) =      0.79134  eV     2   --> G_9-           
     e( 35 - 36) =      1.02194  eV     2   --> G_7+           
     e( 37 - 38) =      2.00737  eV     2   --> G_7-           
     e( 39 - 40) =      2.29803  eV     2   --> G_7+           
     e( 41 - 42) =      2.35335  eV     2   --> G_8+           
     e( 43 - 44) =      3.44292  eV     2   --> G_7-           
     e( 45 - 46) =      3.63517  eV     2   --> G_7+           
     e( 47 - 48) =      4.02609  eV     2   --> G_7+           
     e( 49 - 50) =      5.73964  eV     2   --> G_7-           
     e( 51 - 52) =      6.06456  eV     2   --> G_7+           
     e( 53 - 54) =      6.12946  eV     2   --> G_8-           
     e( 55 - 56) =      6.16784  eV     2   --> G_9-           
     e( 57 - 58) =      7.41978  eV     2   --> G_7+           
     e( 59 - 60) =      7.43337  eV     2   --> G_9+           

 **************************************************************************

 **************************************************************************

                    xk=(   0.01667,   0.00000,   0.00000  )

     double point group C_2v (mm2) 
     there are  5 classes and  1 irreducible representations
     the character table:

       E     -E     C2    s_v   s_v'
                   -C2   -s_v  -s_v'
G_5    2.00 -2.00  0.00  0.00  0.00

     the symmetry operations in each class and the name of the first element:

     E             1
                                                                 
     -E           -1
                                                                 
      C2  -C2      2   -2
                                                                 
      s_v -s_v     4   -4
                                                                 
      s_v'-s_v'    3   -3
                                                                 

     Band symmetry, C_2v (mm2)  double point group:

     e(  1 -  2) =    -24.61559  eV     2   --> G_5  D_5       
     e(  3 -  4) =    -24.51198  eV     2   --> G_5  D_5       
     e(  5 -  6) =    -24.47772  eV     2   --> G_5  D_5       
     e(  7 -  8) =    -24.44811  eV     2   --> G_5  D_5       
     e(  9 - 10) =    -23.64370  eV     2   --> G_5  D_5       
     e( 11 - 12) =    -23.50293  eV     2   --> G_5  D_5       
     e( 13 - 14) =    -23.48993  eV     2   --> G_5  D_5       
     e( 15 - 16) =    -23.37399  eV     2   --> G_5  D_5       
     e( 17 - 18) =    -23.35449  eV     2   --> G_5  D_5       
     e( 19 - 20) =    -23.34425  eV     2   --> G_5  D_5       
     e( 21 - 22) =    -12.17865  eV     2   --> G_5  D_5       
     e( 23 - 24) =     -4.28835  eV     2   --> G_5  D_5       
     e( 25 - 26) =     -3.79499  eV     2   --> G_5  D_5       
     e( 27 - 28) =     -3.50301  eV     2   --> G_5  D_5       
     e( 29 - 30) =     -3.08070  eV     2   --> G_5  D_5       
     e( 31 - 32) =      0.56898  eV     2   --> G_5  D_5       
     e( 33 - 34) =      0.79298  eV     2   --> G_5  D_5       
     e( 35 - 36) =      1.02493  eV     2   --> G_5  D_5       
     e( 37 - 38) =      2.00919  eV     2   --> G_5  D_5       
     e( 39 - 40) =      2.29999  eV     2   --> G_5  D_5       
     e( 41 - 42) =      2.34467  eV     2   --> G_5  D_5       
     e( 43 - 44) =      3.44468  eV     2   --> G_5  D_5       
     e( 45 - 46) =      3.63868  eV     2   --> G_5  D_5       
     e( 47 - 48) =      4.03542  eV     2   --> G_5  D_5       
     e( 49 - 50) =      5.74052  eV     2   --> G_5  D_5       
     e( 51 - 52) =      6.06638  eV     2   --> G_5  D_5       
     e( 53 - 54) =      6.12472  eV     2   --> G_5  D_5       
     e( 55 - 56) =      6.16398  eV     2   --> G_5  D_5       
     e( 57 - 58) =      7.40499  eV     2   --> G_5  D_5       
     e( 59 - 60) =      7.44064  eV     2   --> G_5  D_5       

 **************************************************************************

 **************************************************************************

                    xk=(   0.03333,   0.00000,   0.00000  )

     Band symmetry, C_2v (mm2)  double point group:

     e(  1 -  2) =    -24.61565  eV     2   --> G_5  D_5       
     e(  3 -  4) =    -24.51220  eV     2   --> G_5  D_5       
     e(  5 -  6) =    -24.47766  eV     2   --> G_5  D_5       
     e(  7 -  8) =    -24.44841  eV     2   --> G_5  D_5       
     e(  9 - 10) =    -23.64389  eV     2   --> G_5  D_5       
     e( 11 - 12) =    -23.50201  eV     2   --> G_5  D_5       
     e( 13 - 14) =    -23.49008  eV     2   --> G_5  D_5       
     e( 15 - 16) =    -23.37612  eV     2   --> G_5  D_5       
     e( 17 - 18) =    -23.35209  eV     2   --> G_5  D_5       
     e( 19 - 20) =    -23.34410  eV     2   --> G_5  D_5       
     e( 21 - 22) =    -12.17333  eV     2   --> G_5  D_5       
     e( 23 - 24) =     -4.28296  eV     2   --> G_5  D_5       
     e( 25 - 26) =     -3.97383  eV     2   --> G_5  D_5       
     e( 27 - 28) =     -3.44412  eV     2   --> G_5  D_5       
     e( 29 - 30) =     -2.97949  eV     2   --> G_5  D_5       
     e( 31 - 32) =      0.57793  eV     2   --> G_5  D_5       
     e( 33 - 34) =      0.79963  eV     2   --> G_5  D_5       
     e( 35 - 36) =      1.03364  eV     2   --> G_5  D_5       
     e( 37 - 38) =      2.01466  eV     2   --> G_5  D_5       
     e( 39 - 40) =      2.30585  eV     2   --> G_5  D_5       
     e( 41 - 42) =      2.31889  eV     2   --> G_5  D_5       
     e( 43 - 44) =      3.44993  eV     2   --> G_5  D_5       
     e( 45 - 46) =      3.64880  eV     2   --> G_5  D_5       
     e( 47 - 48) =      4.06361  eV     2   --> G_5  D_5       
     e( 49 - 50) =      5.74277  eV     2   --> G_5  D_5       
     e( 51 - 52) =      6.07183  eV     2   --> G_5  D_5       
     e( 53 - 54) =      6.10424  eV     2   --> G_5  D_5       
     e( 55 - 56) =      6.15910  eV     2   --> G_5  D_5       
     e( 57 - 58) =      7.35575  eV     2   --> G_5  D_5       
     e( 59 - 60) =      7.47791  eV     2   --> G_5  D_5       

 **************************************************************************

 **************************************************************************

                    xk=(   0.05000,   0.00000,   0.00000  )

     Band symmetry, C_2v (mm2)  double point group:

     e(  1 -  2) =    -24.61586  eV     2   --> G_5  D_5       
     e(  3 -  4) =    -24.51259  eV     2   --> G_5  D_5       
     e(  5 -  6) =    -24.47757  eV     2   --> G_5  D_5       
     e(  7 -  8) =    -24.44890  eV     2   --> G_5  D_5       
     e(  9 - 10) =    -23.64433  eV     2   --> G_5  D_5       
     e( 11 - 12) =    -23.50055  eV     2   --> G_5  D_5       
     e( 13 - 14) =    -23.49033  eV     2   --> G_5  D_5       
     e( 15 - 16) =    -23.37887  eV     2   --> G_5  D_5       
     e( 17 - 18) =    -23.34900  eV     2   --> G_5  D_5       
     e( 19 - 20) =    -23.34373  eV     2   --> G_5  D_5       
     e( 21 - 22) =    -12.16447  eV     2   --> G_5  D_5       
     e( 23 - 24) =     -4.27422  eV     2   --> G_5  D_5       
     e( 25 - 26) =     -4.16352  eV     2   --> G_5  D_5       
     e( 27 - 28) =     -3.43043  eV     2   --> G_5  D_5       
     e( 29 - 30) =     -2.83460  eV     2   --> G_5  D_5       
     e( 31 - 32) =      0.58890  eV     2   --> G_5  D_5       
     e( 33 - 34) =      0.81607  eV     2   --> G_5  D_5       
     e( 35 - 36) =      1.04748  eV     2   --> G_5  D_5       
     e( 37 - 38) =      2.02376  eV     2   --> G_5  D_5       
     e( 39 - 40) =      2.27673  eV     2   --> G_5  D_5       
     e( 41 - 42) =      2.31560  eV     2   --> G_5  D_5       
     e( 43 - 44) =      3.45869  eV     2   --> G_5  D_5       
     e( 45 - 46) =      3.66455  eV     2   --> G_5  D_5       
     e( 47 - 48) =      4.11101  eV     2   --> G_5  D_5       
     e( 49 - 50) =      5.74497  eV     2   --> G_5  D_5       
     e( 51 - 52) =      6.06271  eV     2   --> G_5  D_5       
     e( 53 - 54) =      6.08112  eV     2   --> G_5  D_5       
     e( 55 - 56) =      6.16002  eV     2   --> G_5  D_5       
     e( 57 - 58) =      7.29577  eV     2   --> G_5  D_5       
     e( 59 - 60) =      7.54030  eV     2   --> G_5  D_5       

 **************************************************************************

 **************************************************************************

                    xk=(   0.06667,   0.00000,   0.00000  )

     Band symmetry, C_2v (mm2)  double point group:

     e(  1 -  2) =    -24.61613  eV     2   --> G_5  D_5       
     e(  3 -  4) =    -24.51316  eV     2   --> G_5  D_5       
     e(  5 -  6) =    -24.47744  eV     2   --> G_5  D_5       
     e(  7 -  8) =    -24.44956  eV     2   --> G_5  D_5       
     e(  9 - 10) =    -23.64489  eV     2   --> G_5  D_5       
     e( 11 - 12) =    -23.49863  eV     2   --> G_5  D_5       
     e( 13 - 14) =    -23.49061  eV     2   --> G_5  D_5       
     e( 15 - 16) =    -23.38185  eV     2   --> G_5  D_5       
     e( 17 - 18) =    -23.34609  eV     2   --> G_5  D_5       
     e( 19 - 20) =    -23.34267  eV     2   --> G_5  D_5       
     e( 21 - 22) =    -12.15206  eV     2   --> G_5  D_5       
     e( 23 - 24) =     -4.35965  eV     2   --> G_5  D_5       
     e( 25 - 26) =     -4.26046  eV     2   --> G_5  D_5       
     e( 27 - 28) =     -3.44248  eV     2   --> G_5  D_5       
     e( 29 - 30) =     -2.67163  eV     2   --> G_5  D_5       
     e( 31 - 32) =      0.59726  eV     2   --> G_5  D_5       
     e( 33 - 34) =      0.84856  eV     2   --> G_5  D_5       
     e( 35 - 36) =      1.06583  eV     2   --> G_5  D_5       
     e( 37 - 38) =      2.03651  eV     2   --> G_5  D_5       
     e( 39 - 40) =      2.21933  eV     2   --> G_5  D_5       
     e( 41 - 42) =      2.32922  eV     2   --> G_5  D_5       
     e( 43 - 44) =      3.47093  eV     2   --> G_5  D_5       
     e( 45 - 46) =      3.68475  eV     2   --> G_5  D_5       
     e( 47 - 48) =      4.17780  eV     2   --> G_5  D_5       
     e( 49 - 50) =      5.74316  eV     2   --> G_5  D_5       
     e( 51 - 52) =      6.00665  eV     2   --> G_5  D_5       
     e( 53 - 54) =      6.09380  eV     2   --> G_5  D_5       
     e( 55 - 56) =      6.16567  eV     2   --> G_5  D_5       
     e( 57 - 58) =      7.23991  eV     2   --> G_5  D_5       
     e( 59 - 60) =      7.62565  eV     2   --> G_5  D_5       

 **************************************************************************

 **************************************************************************

                    xk=(   0.08333,   0.00000,   0.00000  )

     Band symmetry, C_2v (mm2)  double point group:

     e(  1 -  2) =    -24.61648  eV     2   --> G_5  D_5       
     e(  3 -  4) =    -24.51389  eV     2   --> G_5  D_5       
     e(  5 -  6) =    -24.47733  eV     2   --> G_5  D_5       
     e(  7 -  8) =    -24.45036  eV     2   --> G_5  D_5       
     e(  9 - 10) =    -23.64557  eV     2   --> G_5  D_5       
     e( 11 - 12) =    -23.49658  eV     2   --> G_5  D_5       
     e( 13 - 14) =    -23.49066  eV     2   --> G_5  D_5       
     e( 15 - 16) =    -23.38485  eV     2   --> G_5  D_5       
     e( 17 - 18) =    -23.34465  eV     2   --> G_5  D_5       
     e( 19 - 20) =    -23.33987  eV     2   --> G_5  D_5       
     e( 21 - 22) =    -12.13613  eV     2   --> G_5  D_5       
     e( 23 - 24) =     -4.55665  eV     2   --> G_5  D_5       
     e( 25 - 26) =     -4.24461  eV     2   --> G_5  D_5       
     e( 27 - 28) =     -3.46979  eV     2   --> G_5  D_5       
     e( 29 - 30) =     -2.50386  eV     2   --> G_5  D_5       
     e( 31 - 32) =      0.60030  eV     2   --> G_5  D_5       
     e( 33 - 34) =      0.90147  eV     2   --> G_5  D_5       
     e( 35 - 36) =      1.08822  eV     2   --> G_5  D_5       
     e( 37 - 38) =      2.05289  eV     2   --> G_5  D_5       
     e( 39 - 40) =      2.14816  eV     2   --> G_5  D_5       
     e( 41 - 42) =      2.34667  eV     2   --> G_5  D_5       
     e( 43 - 44) =      3.48664  eV     2   --> G_5  D_5       
     e( 45 - 46) =      3.70846  eV     2   --> G_5  D_5       
     e( 47 - 48) =      4.26367  eV     2   --> G_5  D_5       
     e( 49 - 50) =      5.72685  eV     2   --> G_5  D_5       
     e( 51 - 52) =      5.94945  eV     2   --> G_5  D_5       
     e( 53 - 54) =      6.11020  eV     2   --> G_5  D_5       
     e( 55 - 56) =      6.17499  eV     2   --> G_5  D_5       
     e( 57 - 58) =      7.19519  eV     2   --> G_5  D_5       
     e( 59 - 60) =      7.73207  eV     2   --> G_5  D_5       

 **************************************************************************

 **************************************************************************

                    xk=(   0.10000,   0.00000,   0.00000  )

     Band symmetry, C_2v (mm2)  double point group:

     e(  1 -  2) =    -24.61684  eV     2   --> G_5  D_5       
     e(  3 -  4) =    -24.51478  eV     2   --> G_5  D_5       
     e(  5 -  6) =    -24.47723  eV     2   --> G_5  D_5       
     e(  7 -  8) =    -24.45129  eV     2   --> G_5  D_5       
     e(  9 - 10) =    -23.64627  eV     2   --> G_5  D_5       
     e( 11 - 12) =    -23.49522  eV     2   --> G_5  D_5       
     e( 13 - 14) =    -23.48972  eV     2   --> G_5  D_5       
     e( 15 - 16) =    -23.38774  eV     2   --> G_5  D_5       
     e( 17 - 18) =    -23.34403  eV     2   --> G_5  D_5       
     e( 19 - 20) =    -23.33602  eV     2   --> G_5  D_5       
     e( 21 - 22) =    -12.11667  eV     2   --> G_5  D_5       
     e( 23 - 24) =     -4.75478  eV     2   --> G_5  D_5       
     e( 25 - 26) =     -4.22491  eV     2   --> G_5  D_5       
     e( 27 - 28) =     -3.50793  eV     2   --> G_5  D_5       
     e( 29 - 30) =     -2.33723  eV     2   --> G_5  D_5       
     e( 31 - 32) =      0.59869  eV     2   --> G_5  D_5       
     e( 33 - 34) =      0.97535  eV     2   --> G_5  D_5       
     e( 35 - 36) =      1.11461  eV     2   --> G_5  D_5       
     e( 37 - 38) =      2.06482  eV     2   --> G_5  D_5       
     e( 39 - 40) =      2.07295  eV     2   --> G_5  D_5       
     e( 41 - 42) =      2.36793  eV     2   --> G_5  D_5       
     e( 43 - 44) =      3.50575  eV     2   --> G_5  D_5       
     e( 45 - 46) =      3.73516  eV     2   --> G_5  D_5       
     e( 47 - 48) =      4.36776  eV     2   --> G_5  D_5       
     e( 49 - 50) =      5.67723  eV     2   --> G_5  D_5       
     e( 51 - 52) =      5.91334  eV     2   --> G_5  D_5       
     e( 53 - 54) =      6.13024  eV     2   --> G_5  D_5       
     e( 55 - 56) =      6.18779  eV     2   --> G_5  D_5       
     e( 57 - 58) =      7.16384  eV     2   --> G_5  D_5       
     e( 59 - 60) =      7.85759  eV     2   --> G_5  D_5       

 **************************************************************************

 **************************************************************************

                    xk=(   0.11667,   0.00000,   0.00000  )

     Band symmetry, C_2v (mm2)  double point group:

     e(  1 -  2) =    -24.61735  eV     2   --> G_5  D_5       
     e(  3 -  4) =    -24.51592  eV     2   --> G_5  D_5       
     e(  5 -  6) =    -24.47720  eV     2   --> G_5  D_5       
     e(  7 -  8) =    -24.45240  eV     2   --> G_5  D_5       
     e(  9 - 10) =    -23.64711  eV     2   --> G_5  D_5       
     e( 11 - 12) =    -23.49531  eV     2   --> G_5  D_5       
     e( 13 - 14) =    -23.48724  eV     2   --> G_5  D_5       
     e( 15 - 16) =    -23.39057  eV     2   --> G_5  D_5       
     e( 17 - 18) =    -23.34362  eV     2   --> G_5  D_5       
     e( 19 - 20) =    -23.33198  eV     2   --> G_5  D_5       
     e( 21 - 22) =    -12.09369  eV     2   --> G_5  D_5       
     e( 23 - 24) =     -4.95279  eV     2   --> G_5  D_5       
     e( 25 - 26) =     -4.20172  eV     2   --> G_5  D_5       
     e( 27 - 28) =     -3.55474  eV     2   --> G_5  D_5       
     e( 29 - 30) =     -2.17472  eV     2   --> G_5  D_5       
     e( 31 - 32) =      0.59485  eV     2   --> G_5  D_5       
     e( 33 - 34) =      1.06721  eV     2   --> G_5  D_5       
     e( 35 - 36) =      1.14653  eV     2   --> G_5  D_5       
     e( 37 - 38) =      1.97132  eV     2   --> G_5  D_5       
     e( 39 - 40) =      2.09653  eV     2   --> G_5  D_5       
     e( 41 - 42) =      2.39298  eV     2   --> G_5  D_5       
     e( 43 - 44) =      3.52818  eV     2   --> G_5  D_5       
     e( 45 - 46) =      3.76464  eV     2   --> G_5  D_5       
     e( 47 - 48) =      4.48875  eV     2   --> G_5  D_5       
     e( 49 - 50) =      5.58884  eV     2   --> G_5  D_5       
     e( 51 - 52) =      5.90741  eV     2   --> G_5  D_5       
     e( 53 - 54) =      6.15390  eV     2   --> G_5  D_5       
     e( 55 - 56) =      6.20407  eV     2   --> G_5  D_5       
     e( 57 - 58) =      7.14551  eV     2   --> G_5  D_5       
     e( 59 - 60) =      8.00023  eV     2   --> G_5  D_5       

 **************************************************************************

 **************************************************************************

                    xk=(   0.13333,   0.00000,   0.00000  )

     Band symmetry, C_2v (mm2)  double point group:

     e(  1 -  2) =    -24.61784  eV     2   --> G_5  D_5       
     e(  3 -  4) =    -24.51723  eV     2   --> G_5  D_5       
     e(  5 -  6) =    -24.47720  eV     2   --> G_5  D_5       
     e(  7 -  8) =    -24.45352  eV     2   --> G_5  D_5       
     e(  9 - 10) =    -23.64791  eV     2   --> G_5  D_5       
     e( 11 - 12) =    -23.49615  eV     2   --> G_5  D_5       
     e( 13 - 14) =    -23.48378  eV     2   --> G_5  D_5       
     e( 15 - 16) =    -23.39315  eV     2   --> G_5  D_5       
     e( 17 - 18) =    -23.34316  eV     2   --> G_5  D_5       
     e( 19 - 20) =    -23.32778  eV     2   --> G_5  D_5       
     e( 21 - 22) =    -12.06721  eV     2   --> G_5  D_5       
     e( 23 - 24) =     -5.14996  eV     2   --> G_5  D_5       
     e( 25 - 26) =     -4.17516  eV     2   --> G_5  D_5       
     e( 27 - 28) =     -3.60894  eV     2   --> G_5  D_5       
     e( 29 - 30) =     -2.01793  eV     2   --> G_5  D_5       
     e( 31 - 32) =      0.59114  eV     2   --> G_5  D_5       
     e( 33 - 34) =      1.15540  eV     2   --> G_5  D_5       
     e( 35 - 36) =      1.20367  eV     2   --> G_5  D_5       
     e( 37 - 38) =      1.86978  eV     2   --> G_5  D_5       
     e( 39 - 40) =      2.12376  eV     2   --> G_5  D_5       
     e( 41 - 42) =      2.42180  eV     2   --> G_5  D_5       
     e( 43 - 44) =      3.55382  eV     2   --> G_5  D_5       
     e( 45 - 46) =      3.79691  eV     2   --> G_5  D_5       
     e( 47 - 48) =      4.62508  eV     2   --> G_5  D_5       
     e( 49 - 50) =      5.47602  eV     2   --> G_5  D_5       
     e( 51 - 52) =      5.92090  eV     2   --> G_5  D_5       
     e( 53 - 54) =      6.18115  eV     2   --> G_5  D_5       
     e( 55 - 56) =      6.22384  eV     2   --> G_5  D_5       
     e( 57 - 58) =      7.13878  eV     2   --> G_5  D_5       
     e( 59 - 60) =      8.15250  eV     2   --> G_5  D_5       

 **************************************************************************

 **************************************************************************

                    xk=(   0.15000,   0.00000,   0.00000  )

     Band symmetry, C_2v (mm2)  double point group:

     e(  1 -  2) =    -24.61846  eV     2   --> G_5  D_5       
     e(  3 -  4) =    -24.51878  eV     2   --> G_5  D_5       
     e(  5 -  6) =    -24.47727  eV     2   --> G_5  D_5       
     e(  7 -  8) =    -24.45463  eV     2   --> G_5  D_5       
     e(  9 - 10) =    -23.64877  eV     2   --> G_5  D_5       
     e( 11 - 12) =    -23.49746  eV     2   --> G_5  D_5       
     e( 13 - 14) =    -23.47985  eV     2   --> G_5  D_5       
     e( 15 - 16) =    -23.39554  eV     2   --> G_5  D_5       
     e( 17 - 18) =    -23.34263  eV     2   --> G_5  D_5       
     e( 19 - 20) =    -23.32361  eV     2   --> G_5  D_5       
     e( 21 - 22) =    -12.03724  eV     2   --> G_5  D_5       
     e( 23 - 24) =     -5.34576  eV     2   --> G_5  D_5       
     e( 25 - 26) =     -4.14545  eV     2   --> G_5  D_5       
     e( 27 - 28) =     -3.66949  eV     2   --> G_5  D_5       
     e( 29 - 30) =     -1.86770  eV     2   --> G_5  D_5       
     e( 31 - 32) =      0.58933  eV     2   --> G_5  D_5       
     e( 33 - 34) =      1.20157  eV     2   --> G_5  D_5       
     e( 35 - 36) =      1.32115  eV     2   --> G_5  D_5       
     e( 37 - 38) =      1.76385  eV     2   --> G_5  D_5       
     e( 39 - 40) =      2.15456  eV     2   --> G_5  D_5       
     e( 41 - 42) =      2.45439  eV     2   --> G_5  D_5       
     e( 43 - 44) =      3.58249  eV     2   --> G_5  D_5       
     e( 45 - 46) =      3.83208  eV     2   --> G_5  D_5       
     e( 47 - 48) =      4.77508  eV     2   --> G_5  D_5       
     e( 49 - 50) =      5.35067  eV     2   --> G_5  D_5       
     e( 51 - 52) =      5.94508  eV     2   --> G_5  D_5       
     e( 53 - 54) =      6.21197  eV     2   --> G_5  D_5       
     e( 55 - 56) =      6.24704  eV     2   --> G_5  D_5       
     e( 57 - 58) =      7.14199  eV     2   --> G_5  D_5       
     e( 59 - 60) =      7.98022  eV     2   --> G_5  D_5       

 **************************************************************************

 **************************************************************************

                    xk=(   0.16667,   0.00000,   0.00000  )

     Band symmetry, C_2v (mm2)  double point group:

     e(  1 -  2) =    -24.61904  eV     2   --> G_5  D_5       
     e(  3 -  4) =    -24.52052  eV     2   --> G_5  D_5       
     e(  5 -  6) =    -24.47735  eV     2   --> G_5  D_5       
     e(  7 -  8) =    -24.45566  eV     2   --> G_5  D_5       
     e(  9 - 10) =    -23.64952  eV     2   --> G_5  D_5       
     e( 11 - 12) =    -23.49901  eV     2   --> G_5  D_5       
     e( 13 - 14) =    -23.47558  eV     2   --> G_5  D_5       
     e( 15 - 16) =    -23.39764  eV     2   --> G_5  D_5       
     e( 17 - 18) =    -23.34197  eV     2   --> G_5  D_5       
     e( 19 - 20) =    -23.31940  eV     2   --> G_5  D_5       
     e( 21 - 22) =    -12.00380  eV     2   --> G_5  D_5       
     e( 23 - 24) =     -5.53977  eV     2   --> G_5  D_5       
     e( 25 - 26) =     -4.11300  eV     2   --> G_5  D_5       
     e( 27 - 28) =     -3.73528  eV     2   --> G_5  D_5       
     e( 29 - 30) =     -1.72439  eV     2   --> G_5  D_5       
     e( 31 - 32) =      0.59065  eV     2   --> G_5  D_5       
     e( 33 - 34) =      1.24158  eV     2   --> G_5  D_5       
     e( 35 - 36) =      1.44917  eV     2   --> G_5  D_5       
     e( 37 - 38) =      1.66798  eV     2   --> G_5  D_5       
     e( 39 - 40) =      2.18894  eV     2   --> G_5  D_5       
     e( 41 - 42) =      2.49073  eV     2   --> G_5  D_5       
     e( 43 - 44) =      3.61395  eV     2   --> G_5  D_5       
     e( 45 - 46) =      3.87027  eV     2   --> G_5  D_5       
     e( 47 - 48) =      4.93690  eV     2   --> G_5  D_5       
     e( 49 - 50) =      5.21939  eV     2   --> G_5  D_5       
     e( 51 - 52) =      5.97626  eV     2   --> G_5  D_5       
     e( 53 - 54) =      6.24629  eV     2   --> G_5  D_5       
     e( 55 - 56) =      6.27362  eV     2   --> G_5  D_5       
     e( 57 - 58) =      7.15360  eV     2   --> G_5  D_5       
     e( 59 - 60) =      7.79421  eV     2   --> G_5  D_5       

 **************************************************************************

 **************************************************************************

                    xk=(   0.18333,   0.00000,   0.00000  )

     Band symmetry, C_2v (mm2)  double point group:

     e(  1 -  2) =    -24.61965  eV     2   --> G_5  D_5       
     e(  3 -  4) =    -24.52250  eV     2   --> G_5  D_5       
     e(  5 -  6) =    -24.47753  eV     2   --> G_5  D_5       
     e(  7 -  8) =    -24.45658  eV     2   --> G_5  D_5       
     e(  9 - 10) =    -23.65021  eV     2   --> G_5  D_5       
     e( 11 - 12) =    -23.50082  eV     2   --> G_5  D_5       
     e( 13 - 14) =    -23.47116  eV     2   --> G_5  D_5       
     e( 15 - 16) =    -23.39950  eV     2   --> G_5  D_5       
     e( 17 - 18) =    -23.34119  eV     2   --> G_5  D_5       
     e( 19 - 20) =    -23.31523  eV     2   --> G_5  D_5       
     e( 21 - 22) =    -11.96691  eV     2   --> G_5  D_5       
     e( 23 - 24) =     -5.73167  eV     2   --> G_5  D_5       
     e( 25 - 26) =     -4.07888  eV     2   --> G_5  D_5       
     e( 27 - 28) =     -3.80461  eV     2   --> G_5  D_5       
     e( 29 - 30) =     -1.58796  eV     2   --> G_5  D_5       
     e( 31 - 32) =      0.59587  eV     2   --> G_5  D_5       
     e( 33 - 34) =      1.28335  eV     2   --> G_5  D_5       
     e( 35 - 36) =      1.47009  eV     2   --> G_5  D_5       
     e( 37 - 38) =      1.69224  eV     2   --> G_5  D_5       
     e( 39 - 40) =      2.22692  eV     2   --> G_5  D_5       
     e( 41 - 42) =      2.53083  eV     2   --> G_5  D_5       
     e( 43 - 44) =      3.64782  eV     2   --> G_5  D_5       
     e( 45 - 46) =      3.91162  eV     2   --> G_5  D_5       
     e( 47 - 48) =      5.07883  eV     2   --> G_5  D_5       
     e( 49 - 50) =      5.11608  eV     2   --> G_5  D_5       
     e( 51 - 52) =      6.01289  eV     2   --> G_5  D_5       
     e( 53 - 54) =      6.28393  eV     2   --> G_5  D_5       
     e( 55 - 56) =      6.30350  eV     2   --> G_5  D_5       
     e( 57 - 58) =      7.17230  eV     2   --> G_5  D_5       
     e( 59 - 60) =      7.61163  eV     2   --> G_5  D_5       

 **************************************************************************

 **************************************************************************

                    xk=(   0.20000,   0.00000,   0.00000  )

     Band symmetry, C_2v (mm2)  double point group:

     e(  1 -  2) =    -24.62030  eV     2   --> G_5  D_5       
     e(  3 -  4) =    -24.52472  eV     2   --> G_5  D_5       
     e(  5 -  6) =    -24.47783  eV     2   --> G_5  D_5       
     e(  7 -  8) =    -24.45740  eV     2   --> G_5  D_5       
     e(  9 - 10) =    -23.65084  eV     2   --> G_5  D_5       
     e( 11 - 12) =    -23.50285  eV     2   --> G_5  D_5       
     e( 13 - 14) =    -23.46667  eV     2   --> G_5  D_5       
     e( 15 - 16) =    -23.40110  eV     2   --> G_5  D_5       
     e( 17 - 18) =    -23.34030  eV     2   --> G_5  D_5       
     e( 19 - 20) =    -23.31112  eV     2   --> G_5  D_5       
     e( 21 - 22) =    -11.92659  eV     2   --> G_5  D_5       
     e( 23 - 24) =     -5.92117  eV     2   --> G_5  D_5       
     e( 25 - 26) =     -4.04697  eV     2   --> G_5  D_5       
     e( 27 - 28) =     -3.87297  eV     2   --> G_5  D_5       
     e( 29 - 30) =     -1.45809  eV     2   --> G_5  D_5       
     e( 31 - 32) =      0.60544  eV     2   --> G_5  D_5       
     e( 33 - 34) =      1.32624  eV     2   --> G_5  D_5       
     e( 35 - 36) =      1.36831  eV     2   --> G_5  D_5       
     e( 37 - 38) =      1.85294  eV     2   --> G_5  D_5       
     e( 39 - 40) =      2.26862  eV     2   --> G_5  D_5       
     e( 41 - 42) =      2.57467  eV     2   --> G_5  D_5       
     e( 43 - 44) =      3.68353  eV     2   --> G_5  D_5       
     e( 45 - 46) =      3.95622  eV     2   --> G_5  D_5       
     e( 47 - 48) =      4.95084  eV     2   --> G_5  D_5       
     e( 49 - 50) =      5.29183  eV     2   --> G_5  D_5       
     e( 51 - 52) =      6.05428  eV     2   --> G_5  D_5       
     e( 53 - 54) =      6.32433  eV     2   --> G_5  D_5       
     e( 55 - 56) =      6.33691  eV     2   --> G_5  D_5       
     e( 57 - 58) =      7.19697  eV     2   --> G_5  D_5       
     e( 59 - 60) =      7.43275  eV     2   --> G_5  D_5       

 **************************************************************************

 **************************************************************************

                    xk=(   0.21667,   0.00000,   0.00000  )

     Band symmetry, C_2v (mm2)  double point group:

     e(  1 -  2) =    -24.62092  eV     2   --> G_5  D_5       
     e(  3 -  4) =    -24.52716  eV     2   --> G_5  D_5       
     e(  5 -  6) =    -24.47822  eV     2   --> G_5  D_5       
     e(  7 -  8) =    -24.45803  eV     2   --> G_5  D_5       
     e(  9 - 10) =    -23.65135  eV     2   --> G_5  D_5       
     e( 11 - 12) =    -23.50508  eV     2   --> G_5  D_5       
     e( 13 - 14) =    -23.46218  eV     2   --> G_5  D_5       
     e( 15 - 16) =    -23.40243  eV     2   --> G_5  D_5       
     e( 17 - 18) =    -23.33925  eV     2   --> G_5  D_5       
     e( 19 - 20) =    -23.30708  eV     2   --> G_5  D_5       
     e( 21 - 22) =    -11.88288  eV     2   --> G_5  D_5       
     e( 23 - 24) =     -6.10804  eV     2   --> G_5  D_5       
     e( 25 - 26) =     -4.03696  eV     2   --> G_5  D_5       
     e( 27 - 28) =     -3.92010  eV     2   --> G_5  D_5       
     e( 29 - 30) =     -1.33422  eV     2   --> G_5  D_5       
     e( 31 - 32) =      0.61940  eV     2   --> G_5  D_5       
     e( 33 - 34) =      1.24249  eV     2   --> G_5  D_5       
     e( 35 - 36) =      1.37728  eV     2   --> G_5  D_5       
     e( 37 - 38) =      2.04389  eV     2   --> G_5  D_5       
     e( 39 - 40) =      2.31471  eV     2   --> G_5  D_5       
     e( 41 - 42) =      2.62228  eV     2   --> G_5  D_5       
     e( 43 - 44) =      3.72014  eV     2   --> G_5  D_5       
     e( 45 - 46) =      4.00415  eV     2   --> G_5  D_5       
     e( 47 - 48) =      4.82072  eV     2   --> G_5  D_5       
     e( 49 - 50) =      5.47942  eV     2   --> G_5  D_5       
     e( 51 - 52) =      6.10011  eV     2   --> G_5  D_5       
     e( 53 - 54) =      6.36516  eV     2   --> G_5  D_5       
     e( 55 - 56) =      6.37570  eV     2   --> G_5  D_5       
     e( 57 - 58) =      7.22454  eV     2   --> G_5  D_5       
     e( 59 - 60) =      7.25987  eV     2   --> G_5  D_5       

 **************************************************************************

 **************************************************************************

                    xk=(   0.23333,   0.00000,   0.00000  )

     Band symmetry, C_2v (mm2)  double point group:

     e(  1 -  2) =    -24.62156  eV     2   --> G_5  D_5       
     e(  3 -  4) =    -24.52982  eV     2   --> G_5  D_5       
     e(  5 -  6) =    -24.47867  eV     2   --> G_5  D_5       
     e(  7 -  8) =    -24.45843  eV     2   --> G_5  D_5       
     e(  9 - 10) =    -23.65173  eV     2   --> G_5  D_5       
     e( 11 - 12) =    -23.50751  eV     2   --> G_5  D_5       
     e( 13 - 14) =    -23.45774  eV     2   --> G_5  D_5       
     e( 15 - 16) =    -23.40349  eV     2   --> G_5  D_5       
     e( 17 - 18) =    -23.33801  eV     2   --> G_5  D_5       
     e( 19 - 20) =    -23.30309  eV     2   --> G_5  D_5       
     e( 21 - 22) =    -11.83580  eV     2   --> G_5  D_5       
     e( 23 - 24) =     -6.29209  eV     2   --> G_5  D_5       
     e( 25 - 26) =     -4.08499  eV     2   --> G_5  D_5       
     e( 27 - 28) =     -3.90928  eV     2   --> G_5  D_5       
     e( 29 - 30) =     -1.21567  eV     2   --> G_5  D_5       
     e( 31 - 32) =      0.63723  eV     2   --> G_5  D_5       
     e( 33 - 34) =      1.11631  eV     2   --> G_5  D_5       
     e( 35 - 36) =      1.42800  eV     2   --> G_5  D_5       
     e( 37 - 38) =      2.24540  eV     2   --> G_5  D_5       
     e( 39 - 40) =      2.37001  eV     2   --> G_5  D_5       
     e( 41 - 42) =      2.67364  eV     2   --> G_5  D_5       
     e( 43 - 44) =      3.75611  eV     2   --> G_5  D_5       
     e( 45 - 46) =      4.05547  eV     2   --> G_5  D_5       
     e( 47 - 48) =      4.69623  eV     2   --> G_5  D_5       
     e( 49 - 50) =      5.67150  eV     2   --> G_5  D_5       
     e( 51 - 52) =      6.15031  eV     2   --> G_5  D_5       
     e( 53 - 54) =      6.40404  eV     2   --> G_5  D_5       
     e( 55 - 56) =      6.42153  eV     2   --> G_5  D_5       
     e( 57 - 58) =      7.08487  eV     2   --> G_5  D_5       
     e( 59 - 60) =      7.26242  eV     2   --> G_5  D_5       

 **************************************************************************

 **************************************************************************

                    xk=(   0.25000,   0.00000,   0.00000  )

     Band symmetry, C_2v (mm2)  double point group:

     e(  1 -  2) =    -24.62219  eV     2   --> G_5  D_5       
     e(  3 -  4) =    -24.53274  eV     2   --> G_5  D_5       
     e(  5 -  6) =    -24.47921  eV     2   --> G_5  D_5       
     e(  7 -  8) =    -24.45871  eV     2   --> G_5  D_5       
     e(  9 - 10) =    -23.65201  eV     2   --> G_5  D_5       
     e( 11 - 12) =    -23.51014  eV     2   --> G_5  D_5       
     e( 13 - 14) =    -23.45350  eV     2   --> G_5  D_5       
     e( 15 - 16) =    -23.40432  eV     2   --> G_5  D_5       
     e( 17 - 18) =    -23.33658  eV     2   --> G_5  D_5       
     e( 19 - 20) =    -23.29925  eV     2   --> G_5  D_5       
     e( 21 - 22) =    -11.78540  eV     2   --> G_5  D_5       
     e( 23 - 24) =     -6.47313  eV     2   --> G_5  D_5       
     e( 25 - 26) =     -4.16299  eV     2   --> G_5  D_5       
     e( 27 - 28) =     -3.86804  eV     2   --> G_5  D_5       
     e( 29 - 30) =     -1.10167  eV     2   --> G_5  D_5       
     e( 31 - 32) =      0.65678  eV     2   --> G_5  D_5       
     e( 33 - 34) =      0.99111  eV     2   --> G_5  D_5       
     e( 35 - 36) =      1.48230  eV     2   --> G_5  D_5       
     e( 37 - 38) =      2.38878  eV     2   --> G_5  D_5       
     e( 39 - 40) =      2.49959  eV     2   --> G_5  D_5       
     e( 41 - 42) =      2.72877  eV     2   --> G_5  D_5       
     e( 43 - 44) =      3.78873  eV     2   --> G_5  D_5       
     e( 45 - 46) =      4.11023  eV     2   --> G_5  D_5       
     e( 47 - 48) =      4.58119  eV     2   --> G_5  D_5       
     e( 49 - 50) =      5.86452  eV     2   --> G_5  D_5       
     e( 51 - 52) =      6.20513  eV     2   --> G_5  D_5       
     e( 53 - 54) =      6.44266  eV     2   --> G_5  D_5       
     e( 55 - 56) =      6.47153  eV     2   --> G_5  D_5       
     e( 57 - 58) =      6.91750  eV     2   --> G_5  D_5       
     e( 59 - 60) =      7.30013  eV     2   --> G_5  D_5       

 **************************************************************************

 **************************************************************************

                    xk=(   0.26667,   0.00000,   0.00000  )

     Band symmetry, C_2v (mm2)  double point group:

     e(  1 -  2) =    -24.62278  eV     2   --> G_5  D_5       
     e(  3 -  4) =    -24.53587  eV     2   --> G_5  D_5       
     e(  5 -  6) =    -24.47983  eV     2   --> G_5  D_5       
     e(  7 -  8) =    -24.45881  eV     2   --> G_5  D_5       
     e(  9 - 10) =    -23.65214  eV     2   --> G_5  D_5       
     e( 11 - 12) =    -23.51294  eV     2   --> G_5  D_5       
     e( 13 - 14) =    -23.44946  eV     2   --> G_5  D_5       
     e( 15 - 16) =    -23.40490  eV     2   --> G_5  D_5       
     e( 17 - 18) =    -23.33496  eV     2   --> G_5  D_5       
     e( 19 - 20) =    -23.29548  eV     2   --> G_5  D_5       
     e( 21 - 22) =    -11.73171  eV     2   --> G_5  D_5       
     e( 23 - 24) =     -6.65102  eV     2   --> G_5  D_5       
     e( 25 - 26) =     -4.24936  eV     2   --> G_5  D_5       
     e( 27 - 28) =     -3.81741  eV     2   --> G_5  D_5       
     e( 29 - 30) =     -0.99147  eV     2   --> G_5  D_5       
     e( 31 - 32) =      0.66911  eV     2   --> G_5  D_5       
     e( 33 - 34) =      0.87741  eV     2   --> G_5  D_5       
     e( 35 - 36) =      1.53998  eV     2   --> G_5  D_5       
     e( 37 - 38) =      2.45187  eV     2   --> G_5  D_5       
     e( 39 - 40) =      2.72327  eV     2   --> G_5  D_5       
     e( 41 - 42) =      2.78786  eV     2   --> G_5  D_5       
     e( 43 - 44) =      3.81333  eV     2   --> G_5  D_5       
     e( 45 - 46) =      4.16845  eV     2   --> G_5  D_5       
     e( 47 - 48) =      4.48124  eV     2   --> G_5  D_5       
     e( 49 - 50) =      6.05257  eV     2   --> G_5  D_5       
     e( 51 - 52) =      6.26571  eV     2   --> G_5  D_5       
     e( 53 - 54) =      6.48112  eV     2   --> G_5  D_5       
     e( 55 - 56) =      6.52334  eV     2   --> G_5  D_5       
     e( 57 - 58) =      6.75411  eV     2   --> G_5  D_5       
     e( 59 - 60) =      7.30475  eV     2   --> G_5  D_5       

 **************************************************************************

 **************************************************************************

                    xk=(   0.28333,   0.00000,   0.00000  )

     Band symmetry, C_2v (mm2)  double point group:

     e(  1 -  2) =    -24.62336  eV     2   --> G_5  D_5       
     e(  3 -  4) =    -24.53918  eV     2   --> G_5  D_5       
     e(  5 -  6) =    -24.48047  eV     2   --> G_5  D_5       
     e(  7 -  8) =    -24.45877  eV     2   --> G_5  D_5       
     e(  9 - 10) =    -23.65213  eV     2   --> G_5  D_5       
     e( 11 - 12) =    -23.51590  eV     2   --> G_5  D_5       
     e( 13 - 14) =    -23.44570  eV     2   --> G_5  D_5       
     e( 15 - 16) =    -23.40526  eV     2   --> G_5  D_5       
     e( 17 - 18) =    -23.33315  eV     2   --> G_5  D_5       
     e( 19 - 20) =    -23.29182  eV     2   --> G_5  D_5       
     e( 21 - 22) =    -11.67479  eV     2   --> G_5  D_5       
     e( 23 - 24) =     -6.82562  eV     2   --> G_5  D_5       
     e( 25 - 26) =     -4.33932  eV     2   --> G_5  D_5       
     e( 27 - 28) =     -3.76170  eV     2   --> G_5  D_5       
     e( 29 - 30) =     -0.88436  eV     2   --> G_5  D_5       
     e( 31 - 32) =      0.63707  eV     2   --> G_5  D_5       
     e( 33 - 34) =      0.81326  eV     2   --> G_5  D_5       
     e( 35 - 36) =      1.60102  eV     2   --> G_5  D_5       
     e( 37 - 38) =      2.50865  eV     2   --> G_5  D_5       
     e( 39 - 40) =      2.84994  eV     2   --> G_5  D_5       
     e( 41 - 42) =      2.96607  eV     2   --> G_5  D_5       
     e( 43 - 44) =      3.82251  eV     2   --> G_5  D_5       
     e( 45 - 46) =      4.23014  eV     2   --> G_5  D_5       
     e( 47 - 48) =      4.40471  eV     2   --> G_5  D_5       
     e( 49 - 50) =      6.22177  eV     2   --> G_5  D_5       
     e( 51 - 52) =      6.33737  eV     2   --> G_5  D_5       
     e( 53 - 54) =      6.51733  eV     2   --> G_5  D_5       
     e( 55 - 56) =      6.57350  eV     2   --> G_5  D_5       
     e( 57 - 58) =      6.59623  eV     2   --> G_5  D_5       
     e( 59 - 60) =      7.18356  eV     2   --> G_5  D_5       

 **************************************************************************

 **************************************************************************

                    xk=(   0.30000,   0.00000,   0.00000  )

     Band symmetry, C_2v (mm2)  double point group:

     e(  1 -  2) =    -24.62390  eV     2   --> G_5  D_5       
     e(  3 -  4) =    -24.54264  eV     2   --> G_5  D_5       
     e(  5 -  6) =    -24.48111  eV     2   --> G_5  D_5       
     e(  7 -  8) =    -24.45859  eV     2   --> G_5  D_5       
     e(  9 - 10) =    -23.65198  eV     2   --> G_5  D_5       
     e( 11 - 12) =    -23.51899  eV     2   --> G_5  D_5       
     e( 13 - 14) =    -23.44224  eV     2   --> G_5  D_5       
     e( 15 - 16) =    -23.40539  eV     2   --> G_5  D_5       
     e( 17 - 18) =    -23.33114  eV     2   --> G_5  D_5       
     e( 19 - 20) =    -23.28827  eV     2   --> G_5  D_5       
     e( 21 - 22) =    -11.61470  eV     2   --> G_5  D_5       
     e( 23 - 24) =     -6.99683  eV     2   --> G_5  D_5       
     e( 25 - 26) =     -4.43118  eV     2   --> G_5  D_5       
     e( 27 - 28) =     -3.70210  eV     2   --> G_5  D_5       
     e( 29 - 30) =     -0.77976  eV     2   --> G_5  D_5       
     e( 31 - 32) =      0.53826  eV     2   --> G_5  D_5       
     e( 33 - 34) =      0.82176  eV     2   --> G_5  D_5       
     e( 35 - 36) =      1.66543  eV     2   --> G_5  D_5       
     e( 37 - 38) =      2.56541  eV     2   --> G_5  D_5       
     e( 39 - 40) =      2.91641  eV     2   --> G_5  D_5       
     e( 41 - 42) =      3.21826  eV     2   --> G_5  D_5       
     e( 43 - 44) =      3.80803  eV     2   --> G_5  D_5       
     e( 45 - 46) =      4.29530  eV     2   --> G_5  D_5       
     e( 47 - 48) =      4.36100  eV     2   --> G_5  D_5       
     e( 49 - 50) =      6.33914  eV     2   --> G_5  D_5       
     e( 51 - 52) =      6.42906  eV     2   --> G_5  D_5       
     e( 53 - 54) =      6.44450  eV     2   --> G_5  D_5       
     e( 55 - 56) =      6.55425  eV     2   --> G_5  D_5       
     e( 57 - 58) =      6.61647  eV     2   --> G_5  D_5       
     e( 59 - 60) =      7.10355  eV     2   --> G_5  D_5       

 **************************************************************************

 **************************************************************************

                    xk=(   0.31667,   0.00000,   0.00000  )

     Band symmetry, C_2v (mm2)  double point group:

     e(  1 -  2) =    -24.62426  eV     2   --> G_5  D_5       
     e(  3 -  4) =    -24.54615  eV     2   --> G_5  D_5       
     e(  5 -  6) =    -24.48173  eV     2   --> G_5  D_5       
     e(  7 -  8) =    -24.45826  eV     2   --> G_5  D_5       
     e(  9 - 10) =    -23.65158  eV     2   --> G_5  D_5       
     e( 11 - 12) =    -23.52208  eV     2   --> G_5  D_5       
     e( 13 - 14) =    -23.43908  eV     2   --> G_5  D_5       
     e( 15 - 16) =    -23.40527  eV     2   --> G_5  D_5       
     e( 17 - 18) =    -23.32896  eV     2   --> G_5  D_5       
     e( 19 - 20) =    -23.28475  eV     2   --> G_5  D_5       
     e( 21 - 22) =    -11.55149  eV     2   --> G_5  D_5       
     e( 23 - 24) =     -7.16454  eV     2   --> G_5  D_5       
     e( 25 - 26) =     -4.52402  eV     2   --> G_5  D_5       
     e( 27 - 28) =     -3.63909  eV     2   --> G_5  D_5       
     e( 29 - 30) =     -0.67728  eV     2   --> G_5  D_5       
     e( 31 - 32) =      0.41683  eV     2   --> G_5  D_5       
     e( 33 - 34) =      0.85941  eV     2   --> G_5  D_5       
     e( 35 - 36) =      1.73321  eV     2   --> G_5  D_5       
     e( 37 - 38) =      2.62208  eV     2   --> G_5  D_5       
     e( 39 - 40) =      2.98653  eV     2   --> G_5  D_5       
     e( 41 - 42) =      3.47780  eV     2   --> G_5  D_5       
     e( 43 - 44) =      3.76787  eV     2   --> G_5  D_5       
     e( 45 - 46) =      4.35390  eV     2   --> G_5  D_5       
     e( 47 - 48) =      4.36399  eV     2   --> G_5  D_5       
     e( 49 - 50) =      6.28223  eV     2   --> G_5  D_5       
     e( 51 - 52) =      6.42052  eV     2   --> G_5  D_5       
     e( 53 - 54) =      6.50182  eV     2   --> G_5  D_5       
     e( 55 - 56) =      6.58076  eV     2   --> G_5  D_5       
     e( 57 - 58) =      6.66311  eV     2   --> G_5  D_5       
     e( 59 - 60) =      7.09662  eV     2   --> G_5  D_5       

 **************************************************************************

 **************************************************************************

                    xk=(   0.33333,   0.00000,   0.00000  )

     Band symmetry, C_2v (mm2)  double point group:

     e(  1 -  2) =    -24.62464  eV     2   --> G_5  D_5       
     e(  3 -  4) =    -24.54980  eV     2   --> G_5  D_5       
     e(  5 -  6) =    -24.48234  eV     2   --> G_5  D_5       
     e(  7 -  8) =    -24.45785  eV     2   --> G_5  D_5       
     e(  9 - 10) =    -23.65109  eV     2   --> G_5  D_5       
     e( 11 - 12) =    -23.52530  eV     2   --> G_5  D_5       
     e( 13 - 14) =    -23.43633  eV     2   --> G_5  D_5       
     e( 15 - 16) =    -23.40498  eV     2   --> G_5  D_5       
     e( 17 - 18) =    -23.32663  eV     2   --> G_5  D_5       
     e( 19 - 20) =    -23.28136  eV     2   --> G_5  D_5       
     e( 21 - 22) =    -11.48525  eV     2   --> G_5  D_5       
     e( 23 - 24) =     -7.32867  eV     2   --> G_5  D_5       
     e( 25 - 26) =     -4.61714  eV     2   --> G_5  D_5       
     e( 27 - 28) =     -3.57295  eV     2   --> G_5  D_5       
     e( 29 - 30) =     -0.57693  eV     2   --> G_5  D_5       
     e( 31 - 32) =      0.29150  eV     2   --> G_5  D_5       
     e( 33 - 34) =      0.90836  eV     2   --> G_5  D_5       
     e( 35 - 36) =      1.80433  eV     2   --> G_5  D_5       
     e( 37 - 38) =      2.67734  eV     2   --> G_5  D_5       
     e( 39 - 40) =      3.06039  eV     2   --> G_5  D_5       
     e( 41 - 42) =      3.69596  eV     2   --> G_5  D_5       
     e( 43 - 44) =      3.75645  eV     2   --> G_5  D_5       
     e( 45 - 46) =      4.37800  eV     2   --> G_5  D_5       
     e( 47 - 48) =      4.43601  eV     2   --> G_5  D_5       
     e( 49 - 50) =      6.13786  eV     2   --> G_5  D_5       
     e( 51 - 52) =      6.42352  eV     2   --> G_5  D_5       
     e( 53 - 54) =      6.52685  eV     2   --> G_5  D_5       
     e( 55 - 56) =      6.59984  eV     2   --> G_5  D_5       
     e( 57 - 58) =      6.73852  eV     2   --> G_5  D_5       
     e( 59 - 60) =      7.16371  eV     2   --> G_5  D_5       

 **************************************************************************

 **************************************************************************

                    xk=(   0.35000,   0.00000,   0.00000  )

     Band symmetry, C_2v (mm2)  double point group:

     e(  1 -  2) =    -24.62492  eV     2   --> G_5  D_5       
     e(  3 -  4) =    -24.55349  eV     2   --> G_5  D_5       
     e(  5 -  6) =    -24.48291  eV     2   --> G_5  D_5       
     e(  7 -  8) =    -24.45738  eV     2   --> G_5  D_5       
     e(  9 - 10) =    -23.65041  eV     2   --> G_5  D_5       
     e( 11 - 12) =    -23.52860  eV     2   --> G_5  D_5       
     e( 13 - 14) =    -23.43395  eV     2   --> G_5  D_5       
     e( 15 - 16) =    -23.40454  eV     2   --> G_5  D_5       
     e( 17 - 18) =    -23.32416  eV     2   --> G_5  D_5       
     e( 19 - 20) =    -23.27804  eV     2   --> G_5  D_5       
     e( 21 - 22) =    -11.41606  eV     2   --> G_5  D_5       
     e( 23 - 24) =     -7.48912  eV     2   --> G_5  D_5       
     e( 25 - 26) =     -4.70997  eV     2   --> G_5  D_5       
     e( 27 - 28) =     -3.50388  eV     2   --> G_5  D_5       
     e( 29 - 30) =     -0.47969  eV     2   --> G_5  D_5       
     e( 31 - 32) =      0.16808  eV     2   --> G_5  D_5       
     e( 33 - 34) =      0.96446  eV     2   --> G_5  D_5       
     e( 35 - 36) =      1.87879  eV     2   --> G_5  D_5       
     e( 37 - 38) =      2.72881  eV     2   --> G_5  D_5       
     e( 39 - 40) =      3.13799  eV     2   --> G_5  D_5       
     e( 41 - 42) =      3.63802  eV     2   --> G_5  D_5       
     e( 43 - 44) =      4.01852  eV     2   --> G_5  D_5       
     e( 45 - 46) =      4.42409  eV     2   --> G_5  D_5       
     e( 47 - 48) =      4.51148  eV     2   --> G_5  D_5       
     e( 49 - 50) =      5.99745  eV     2   --> G_5  D_5       
     e( 51 - 52) =      6.33406  eV     2   --> G_5  D_5       
     e( 53 - 54) =      6.58903  eV     2   --> G_5  D_5       
     e( 55 - 56) =      6.60451  eV     2   --> G_5  D_5       
     e( 57 - 58) =      6.81855  eV     2   --> G_5  D_5       
     e( 59 - 60) =      7.25088  eV     2   --> G_5  D_5       

 **************************************************************************

 **************************************************************************

                    xk=(   0.36667,   0.00000,   0.00000  )

     Band symmetry, C_2v (mm2)  double point group:

     e(  1 -  2) =    -24.62520  eV     2   --> G_5  D_5       
     e(  3 -  4) =    -24.55724  eV     2   --> G_5  D_5       
     e(  5 -  6) =    -24.48347  eV     2   --> G_5  D_5       
     e(  7 -  8) =    -24.45687  eV     2   --> G_5  D_5       
     e(  9 - 10) =    -23.64964  eV     2   --> G_5  D_5       
     e( 11 - 12) =    -23.53196  eV     2   --> G_5  D_5       
     e( 13 - 14) =    -23.43200  eV     2   --> G_5  D_5       
     e( 15 - 16) =    -23.40394  eV     2   --> G_5  D_5       
     e( 17 - 18) =    -23.32169  eV     2   --> G_5  D_5       
     e( 19 - 20) =    -23.27485  eV     2   --> G_5  D_5       
     e( 21 - 22) =    -11.34401  eV     2   --> G_5  D_5       
     e( 23 - 24) =     -7.64584  eV     2   --> G_5  D_5       
     e( 25 - 26) =     -4.80200  eV     2   --> G_5  D_5       
     e( 27 - 28) =     -3.43204  eV     2   --> G_5  D_5       
     e( 29 - 30) =     -0.38950  eV     2   --> G_5  D_5       
     e( 31 - 32) =      0.05251  eV     2   --> G_5  D_5       
     e( 33 - 34) =      1.02632  eV     2   --> G_5  D_5       
     e( 35 - 36) =      1.95656  eV     2   --> G_5  D_5       
     e( 37 - 38) =      2.77263  eV     2   --> G_5  D_5       
     e( 39 - 40) =      3.21931  eV     2   --> G_5  D_5       
     e( 41 - 42) =      3.57626  eV     2   --> G_5  D_5       
     e( 43 - 44) =      4.28952  eV     2   --> G_5  D_5       
     e( 45 - 46) =      4.48614  eV     2   --> G_5  D_5       
     e( 47 - 48) =      4.59031  eV     2   --> G_5  D_5       
     e( 49 - 50) =      5.86368  eV     2   --> G_5  D_5       
     e( 51 - 52) =      6.21757  eV     2   --> G_5  D_5       
     e( 53 - 54) =      6.58534  eV     2   --> G_5  D_5       
     e( 55 - 56) =      6.66118  eV     2   --> G_5  D_5       
     e( 57 - 58) =      6.89398  eV     2   --> G_5  D_5       
     e( 59 - 60) =      7.26427  eV     2   --> G_5  D_5       

 **************************************************************************

 **************************************************************************

                    xk=(   0.38333,   0.00000,   0.00000  )

     Band symmetry, C_2v (mm2)  double point group:

     e(  1 -  2) =    -24.62547  eV     2   --> G_5  D_5       
     e(  3 -  4) =    -24.56100  eV     2   --> G_5  D_5       
     e(  5 -  6) =    -24.48398  eV     2   --> G_5  D_5       
     e(  7 -  8) =    -24.45634  eV     2   --> G_5  D_5       
     e(  9 - 10) =    -23.64877  eV     2   --> G_5  D_5       
     e( 11 - 12) =    -23.53538  eV     2   --> G_5  D_5       
     e( 13 - 14) =    -23.43043  eV     2   --> G_5  D_5       
     e( 15 - 16) =    -23.40321  eV     2   --> G_5  D_5       
     e( 17 - 18) =    -23.31919  eV     2   --> G_5  D_5       
     e( 19 - 20) =    -23.27179  eV     2   --> G_5  D_5       
     e( 21 - 22) =    -11.26923  eV     2   --> G_5  D_5       
     e( 23 - 24) =     -7.79876  eV     2   --> G_5  D_5       
     e( 25 - 26) =     -4.89275  eV     2   --> G_5  D_5       
     e( 27 - 28) =     -3.35761  eV     2   --> G_5  D_5       
     e( 29 - 30) =     -0.32285  eV     2   --> G_5  D_5       
     e( 31 - 32) =     -0.03760  eV     2   --> G_5  D_5       
     e( 33 - 34) =      1.09321  eV     2   --> G_5  D_5       
     e( 35 - 36) =      2.03759  eV     2   --> G_5  D_5       
     e( 37 - 38) =      2.80327  eV     2   --> G_5  D_5       
     e( 39 - 40) =      3.30436  eV     2   --> G_5  D_5       
     e( 41 - 42) =      3.52859  eV     2   --> G_5  D_5       
     e( 43 - 44) =      4.52953  eV     2   --> G_5  D_5       
     e( 45 - 46) =      4.58718  eV     2   --> G_5  D_5       
     e( 47 - 48) =      4.67272  eV     2   --> G_5  D_5       
     e( 49 - 50) =      5.74005  eV     2   --> G_5  D_5       
     e( 51 - 52) =      6.09269  eV     2   --> G_5  D_5       
     e( 53 - 54) =      6.54394  eV     2   --> G_5  D_5       
     e( 55 - 56) =      6.72887  eV     2   --> G_5  D_5       
     e( 57 - 58) =      6.96270  eV     2   --> G_5  D_5       
     e( 59 - 60) =      7.16424  eV     2   --> G_5  D_5       

 **************************************************************************

 **************************************************************************

                    xk=(   0.40000,   0.00000,   0.00000  )

     Band symmetry, C_2v (mm2)  double point group:

     e(  1 -  2) =    -24.62562  eV     2   --> G_5  D_5       
     e(  3 -  4) =    -24.56470  eV     2   --> G_5  D_5       
     e(  5 -  6) =    -24.48444  eV     2   --> G_5  D_5       
     e(  7 -  8) =    -24.45573  eV     2   --> G_5  D_5       
     e(  9 - 10) =    -23.64771  eV     2   --> G_5  D_5       
     e( 11 - 12) =    -23.53878  eV     2   --> G_5  D_5       
     e( 13 - 14) =    -23.42916  eV     2   --> G_5  D_5       
     e( 15 - 16) =    -23.40234  eV     2   --> G_5  D_5       
     e( 17 - 18) =    -23.31669  eV     2   --> G_5  D_5       
     e( 19 - 20) =    -23.26874  eV     2   --> G_5  D_5       
     e( 21 - 22) =    -11.19182  eV     2   --> G_5  D_5       
     e( 23 - 24) =     -7.94782  eV     2   --> G_5  D_5       
     e( 25 - 26) =     -4.98177  eV     2   --> G_5  D_5       
     e( 27 - 28) =     -3.28073  eV     2   --> G_5  D_5       
     e( 29 - 30) =     -0.32930  eV     2   --> G_5  D_5       
     e( 31 - 32) =     -0.05189  eV     2   --> G_5  D_5       
     e( 33 - 34) =      1.16468  eV     2   --> G_5  D_5       
     e( 35 - 36) =      2.12184  eV     2   --> G_5  D_5       
     e( 37 - 38) =      2.81447  eV     2   --> G_5  D_5       
     e( 39 - 40) =      3.39313  eV     2   --> G_5  D_5       
     e( 41 - 42) =      3.50423  eV     2   --> G_5  D_5       
     e( 43 - 44) =      4.62565  eV     2   --> G_5  D_5       
     e( 45 - 46) =      4.75584  eV     2   --> G_5  D_5       
     e( 47 - 48) =      4.82924  eV     2   --> G_5  D_5       
     e( 49 - 50) =      5.63611  eV     2   --> G_5  D_5       
     e( 51 - 52) =      5.96536  eV     2   --> G_5  D_5       
     e( 53 - 54) =      6.48023  eV     2   --> G_5  D_5       
     e( 55 - 56) =      6.77929  eV     2   --> G_5  D_5       
     e( 57 - 58) =      7.01069  eV     2   --> G_5  D_5       
     e( 59 - 60) =      7.03312  eV     2   --> G_5  D_5       

 **************************************************************************

 **************************************************************************

                    xk=(   0.41667,   0.00000,   0.00000  )

     Band symmetry, C_2v (mm2)  double point group:

     e(  1 -  2) =    -24.62567  eV     2   --> G_5  D_5       
     e(  3 -  4) =    -24.56829  eV     2   --> G_5  D_5       
     e(  5 -  6) =    -24.48490  eV     2   --> G_5  D_5       
     e(  7 -  8) =    -24.45514  eV     2   --> G_5  D_5       
     e(  9 - 10) =    -23.64653  eV     2   --> G_5  D_5       
     e( 11 - 12) =    -23.54217  eV     2   --> G_5  D_5       
     e( 13 - 14) =    -23.42822  eV     2   --> G_5  D_5       
     e( 15 - 16) =    -23.40142  eV     2   --> G_5  D_5       
     e( 17 - 18) =    -23.31427  eV     2   --> G_5  D_5       
     e( 19 - 20) =    -23.26579  eV     2   --> G_5  D_5       
     e( 21 - 22) =    -11.11193  eV     2   --> G_5  D_5       
     e( 23 - 24) =     -8.09299  eV     2   --> G_5  D_5       
     e( 25 - 26) =     -5.06864  eV     2   --> G_5  D_5       
     e( 27 - 28) =     -3.20158  eV     2   --> G_5  D_5       
     e( 29 - 30) =     -0.41222  eV     2   --> G_5  D_5       
     e( 31 - 32) =      0.01364  eV     2   --> G_5  D_5       
     e( 33 - 34) =      1.24030  eV     2   --> G_5  D_5       
     e( 35 - 36) =      2.20923  eV     2   --> G_5  D_5       
     e( 37 - 38) =      2.80243  eV     2   --> G_5  D_5       
     e( 39 - 40) =      3.48558  eV     2   --> G_5  D_5       
     e( 41 - 42) =      3.50869  eV     2   --> G_5  D_5       
     e( 43 - 44) =      4.71109  eV     2   --> G_5  D_5       
     e( 45 - 46) =      4.84415  eV     2   --> G_5  D_5       
     e( 47 - 48) =      5.03771  eV     2   --> G_5  D_5       
     e( 49 - 50) =      5.58450  eV     2   --> G_5  D_5       
     e( 51 - 52) =      5.83897  eV     2   --> G_5  D_5       
     e( 53 - 54) =      6.39963  eV     2   --> G_5  D_5       
     e( 55 - 56) =      6.77387  eV     2   --> G_5  D_5       
     e( 57 - 58) =      6.89613  eV     2   --> G_5  D_5       
     e( 59 - 60) =      6.91044  eV     2   --> G_5  D_5       

 **************************************************************************

 **************************************************************************

                    xk=(   0.43333,   0.00000,   0.00000  )

     Band symmetry, C_2v (mm2)  double point group:

     e(  1 -  2) =    -24.62571  eV     2   --> G_5  D_5       
     e(  3 -  4) =    -24.57179  eV     2   --> G_5  D_5       
     e(  5 -  6) =    -24.48531  eV     2   --> G_5  D_5       
     e(  7 -  8) =    -24.45453  eV     2   --> G_5  D_5       
     e(  9 - 10) =    -23.64524  eV     2   --> G_5  D_5       
     e( 11 - 12) =    -23.54554  eV     2   --> G_5  D_5       
     e( 13 - 14) =    -23.42754  eV     2   --> G_5  D_5       
     e( 15 - 16) =    -23.40047  eV     2   --> G_5  D_5       
     e( 17 - 18) =    -23.31197  eV     2   --> G_5  D_5       
     e( 19 - 20) =    -23.26293  eV     2   --> G_5  D_5       
     e( 21 - 22) =    -11.02972  eV     2   --> G_5  D_5       
     e( 23 - 24) =     -8.23420  eV     2   --> G_5  D_5       
     e( 25 - 26) =     -5.15294  eV     2   --> G_5  D_5       
     e( 27 - 28) =     -3.12035  eV     2   --> G_5  D_5       
     e( 29 - 30) =     -0.51985  eV     2   --> G_5  D_5       
     e( 31 - 32) =      0.10771  eV     2   --> G_5  D_5       
     e( 33 - 34) =      1.31968  eV     2   --> G_5  D_5       
     e( 35 - 36) =      2.29966  eV     2   --> G_5  D_5       
     e( 37 - 38) =      2.76886  eV     2   --> G_5  D_5       
     e( 39 - 40) =      3.54126  eV     2   --> G_5  D_5       
     e( 41 - 42) =      3.58175  eV     2   --> G_5  D_5       
     e( 43 - 44) =      4.80049  eV     2   --> G_5  D_5       
     e( 45 - 46) =      4.93412  eV     2   --> G_5  D_5       
     e( 47 - 48) =      5.11793  eV     2   --> G_5  D_5       
     e( 49 - 50) =      5.64466  eV     2   --> G_5  D_5       
     e( 51 - 52) =      5.73489  eV     2   --> G_5  D_5       
     e( 53 - 54) =      6.30855  eV     2   --> G_5  D_5       
     e( 55 - 56) =      6.69902  eV     2   --> G_5  D_5       
     e( 57 - 58) =      6.76540  eV     2   --> G_5  D_5       
     e( 59 - 60) =      6.77696  eV     2   --> G_5  D_5       

 **************************************************************************

 **************************************************************************

                    xk=(   0.45000,   0.00000,   0.00000  )

     Band symmetry, C_2v (mm2)  double point group:

     e(  1 -  2) =    -24.62575  eV     2   --> G_5  D_5       
     e(  3 -  4) =    -24.57519  eV     2   --> G_5  D_5       
     e(  5 -  6) =    -24.48568  eV     2   --> G_5  D_5       
     e(  7 -  8) =    -24.45396  eV     2   --> G_5  D_5       
     e(  9 - 10) =    -23.64389  eV     2   --> G_5  D_5       
     e( 11 - 12) =    -23.54888  eV     2   --> G_5  D_5       
     e( 13 - 14) =    -23.42713  eV     2   --> G_5  D_5       
     e( 15 - 16) =    -23.39948  eV     2   --> G_5  D_5       
     e( 17 - 18) =    -23.30984  eV     2   --> G_5  D_5       
     e( 19 - 20) =    -23.26017  eV     2   --> G_5  D_5       
     e( 21 - 22) =    -10.94537  eV     2   --> G_5  D_5       
     e( 23 - 24) =     -8.37143  eV     2   --> G_5  D_5       
     e( 25 - 26) =     -5.23427  eV     2   --> G_5  D_5       
     e( 27 - 28) =     -3.03723  eV     2   --> G_5  D_5       
     e( 29 - 30) =     -0.63312  eV     2   --> G_5  D_5       
     e( 31 - 32) =      0.21165  eV     2   --> G_5  D_5       
     e( 33 - 34) =      1.40237  eV     2   --> G_5  D_5       
     e( 35 - 36) =      2.39297  eV     2   --> G_5  D_5       
     e( 37 - 38) =      2.71977  eV     2   --> G_5  D_5       
     e( 39 - 40) =      3.59682  eV     2   --> G_5  D_5       
     e( 41 - 42) =      3.68154  eV     2   --> G_5  D_5       
     e( 43 - 44) =      4.89396  eV     2   --> G_5  D_5       
     e( 45 - 46) =      5.02526  eV     2   --> G_5  D_5       
     e( 47 - 48) =      5.07265  eV     2   --> G_5  D_5       
     e( 49 - 50) =      5.56986  eV     2   --> G_5  D_5       
     e( 51 - 52) =      5.89004  eV     2   --> G_5  D_5       
     e( 53 - 54) =      6.21490  eV     2   --> G_5  D_5       
     e( 55 - 56) =      6.59485  eV     2   --> G_5  D_5       
     e( 57 - 58) =      6.63246  eV     2   --> G_5  D_5       
     e( 59 - 60) =      6.64719  eV     2   --> G_5  D_5       

 **************************************************************************

 **************************************************************************

                    xk=(   0.46667,   0.00000,   0.00000  )

     Band symmetry, C_2v (mm2)  double point group:

     e(  1 -  2) =    -24.62566  eV     2   --> G_5  D_5       
     e(  3 -  4) =    -24.57838  eV     2   --> G_5  D_5       
     e(  5 -  6) =    -24.48601  eV     2   --> G_5  D_5       
     e(  7 -  8) =    -24.45335  eV     2   --> G_5  D_5       
     e(  9 - 10) =    -23.64240  eV     2   --> G_5  D_5       
     e( 11 - 12) =    -23.55212  eV     2   --> G_5  D_5       
     e( 13 - 14) =    -23.42687  eV     2   --> G_5  D_5       
     e( 15 - 16) =    -23.39847  eV     2   --> G_5  D_5       
     e( 17 - 18) =    -23.30786  eV     2   --> G_5  D_5       
     e( 19 - 20) =    -23.25747  eV     2   --> G_5  D_5       
     e( 21 - 22) =    -10.85908  eV     2   --> G_5  D_5       
     e( 23 - 24) =     -8.50465  eV     2   --> G_5  D_5       
     e( 25 - 26) =     -5.31224  eV     2   --> G_5  D_5       
     e( 27 - 28) =     -2.95244  eV     2   --> G_5  D_5       
     e( 29 - 30) =     -0.74697  eV     2   --> G_5  D_5       
     e( 31 - 32) =      0.32075  eV     2   --> G_5  D_5       
     e( 33 - 34) =      1.48787  eV     2   --> G_5  D_5       
     e( 35 - 36) =      2.48873  eV     2   --> G_5  D_5       
     e( 37 - 38) =      2.66193  eV     2   --> G_5  D_5       
     e( 39 - 40) =      3.66938  eV     2   --> G_5  D_5       
     e( 41 - 42) =      3.78492  eV     2   --> G_5  D_5       
     e( 43 - 44) =      4.98226  eV     2   --> G_5  D_5       
     e( 45 - 46) =      4.99186  eV     2   --> G_5  D_5       
     e( 47 - 48) =      5.11528  eV     2   --> G_5  D_5       
     e( 49 - 50) =      5.44552  eV     2   --> G_5  D_5       
     e( 51 - 52) =      6.06015  eV     2   --> G_5  D_5       
     e( 53 - 54) =      6.18973  eV     2   --> G_5  D_5       
     e( 55 - 56) =      6.46990  eV     2   --> G_5  D_5       
     e( 57 - 58) =      6.49987  eV     2   --> G_5  D_5       
     e( 59 - 60) =      6.53263  eV     2   --> G_5  D_5       

 **************************************************************************

 **************************************************************************

                    xk=(   0.48333,   0.00000,   0.00000  )

     Band symmetry, C_2v (mm2)  double point group:

     e(  1 -  2) =    -24.62557  eV     2   --> G_5  D_5       
     e(  3 -  4) =    -24.58144  eV     2   --> G_5  D_5       
     e(  5 -  6) =    -24.48634  eV     2   --> G_5  D_5       
     e(  7 -  8) =    -24.45281  eV     2   --> G_5  D_5       
     e(  9 - 10) =    -23.64089  eV     2   --> G_5  D_5       
     e( 11 - 12) =    -23.55530  eV     2   --> G_5  D_5       
     e( 13 - 14) =    -23.42681  eV     2   --> G_5  D_5       
     e( 15 - 16) =    -23.39750  eV     2   --> G_5  D_5       
     e( 17 - 18) =    -23.30613  eV     2   --> G_5  D_5       
     e( 19 - 20) =    -23.25492  eV     2   --> G_5  D_5       
     e( 21 - 22) =    -10.77108  eV     2   --> G_5  D_5       
     e( 23 - 24) =     -8.63381  eV     2   --> G_5  D_5       
     e( 25 - 26) =     -5.38644  eV     2   --> G_5  D_5       
     e( 27 - 28) =     -2.86621  eV     2   --> G_5  D_5       
     e( 29 - 30) =     -0.85964  eV     2   --> G_5  D_5       
     e( 31 - 32) =      0.43353  eV     2   --> G_5  D_5       
     e( 33 - 34) =      1.57555  eV     2   --> G_5  D_5       
     e( 35 - 36) =      2.57792  eV     2   --> G_5  D_5       
     e( 37 - 38) =      2.60920  eV     2   --> G_5  D_5       
     e( 39 - 40) =      3.75435  eV     2   --> G_5  D_5       
     e( 41 - 42) =      3.89184  eV     2   --> G_5  D_5       
     e( 43 - 44) =      4.88166  eV     2   --> G_5  D_5       
     e( 45 - 46) =      5.09037  eV     2   --> G_5  D_5       
     e( 47 - 48) =      5.19274  eV     2   --> G_5  D_5       
     e( 49 - 50) =      5.32743  eV     2   --> G_5  D_5       
     e( 51 - 52) =      5.98723  eV     2   --> G_5  D_5       
     e( 53 - 54) =      6.27270  eV     2   --> G_5  D_5       
     e( 55 - 56) =      6.35390  eV     2   --> G_5  D_5       
     e( 57 - 58) =      6.38714  eV     2   --> G_5  D_5       
     e( 59 - 60) =      6.50493  eV     2   --> G_5  D_5       

 **************************************************************************

 **************************************************************************

                    xk=(   0.50000,   0.00000,   0.00000  )

     Band symmetry, C_2v (mm2)  double point group:

     e(  1 -  2) =    -24.62544  eV     2   --> G_5  D_5       
     e(  3 -  4) =    -24.58423  eV     2   --> G_5  D_5       
     e(  5 -  6) =    -24.48662  eV     2   --> G_5  D_5       
     e(  7 -  8) =    -24.45228  eV     2   --> G_5  D_5       
     e(  9 - 10) =    -23.63932  eV     2   --> G_5  D_5       
     e( 11 - 12) =    -23.55835  eV     2   --> G_5  D_5       
     e( 13 - 14) =    -23.42687  eV     2   --> G_5  D_5       
     e( 15 - 16) =    -23.39655  eV     2   --> G_5  D_5       
     e( 17 - 18) =    -23.30462  eV     2   --> G_5  D_5       
     e( 19 - 20) =    -23.25246  eV     2   --> G_5  D_5       
     e( 21 - 22) =    -10.68162  eV     2   --> G_5  D_5       
     e( 23 - 24) =     -8.75891  eV     2   --> G_5  D_5       
     e( 25 - 26) =     -5.45649  eV     2   --> G_5  D_5       
     e( 27 - 28) =     -2.77881  eV     2   --> G_5  D_5       
     e( 29 - 30) =     -0.97033  eV     2   --> G_5  D_5       
     e( 31 - 32) =      0.54941  eV     2   --> G_5  D_5       
     e( 33 - 34) =      1.66463  eV     2   --> G_5  D_5       
     e( 35 - 36) =      2.53330  eV     2   --> G_5  D_5       
     e( 37 - 38) =      2.69202  eV     2   --> G_5  D_5       
     e( 39 - 40) =      3.84864  eV     2   --> G_5  D_5       
     e( 41 - 42) =      4.00218  eV     2   --> G_5  D_5       
     e( 43 - 44) =      4.77768  eV     2   --> G_5  D_5       
     e( 45 - 46) =      5.14033  eV     2   --> G_5  D_5       
     e( 47 - 48) =      5.20184  eV     2   --> G_5  D_5       
     e( 49 - 50) =      5.31540  eV     2   --> G_5  D_5       
     e( 51 - 52) =      5.88726  eV     2   --> G_5  D_5       
     e( 53 - 54) =      6.10518  eV     2   --> G_5  D_5       
     e( 55 - 56) =      6.26445  eV     2   --> G_5  D_5       
     e( 57 - 58) =      6.28149  eV     2   --> G_5  D_5       
     e( 59 - 60) =      6.40026  eV     2   --> G_5  D_5       

 **************************************************************************

 **************************************************************************

                    xk=(   0.51667,   0.00000,   0.00000  )

     Band symmetry, C_2v (mm2)  double point group:

     e(  1 -  2) =    -24.62533  eV     2   --> G_5  D_5       
     e(  3 -  4) =    -24.58683  eV     2   --> G_5  D_5       
     e(  5 -  6) =    -24.48687  eV     2   --> G_5  D_5       
     e(  7 -  8) =    -24.45176  eV     2   --> G_5  D_5       
     e(  9 - 10) =    -23.63774  eV     2   --> G_5  D_5       
     e( 11 - 12) =    -23.56126  eV     2   --> G_5  D_5       
     e( 13 - 14) =    -23.42700  eV     2   --> G_5  D_5       
     e( 15 - 16) =    -23.39566  eV     2   --> G_5  D_5       
     e( 17 - 18) =    -23.30333  eV     2   --> G_5  D_5       
     e( 19 - 20) =    -23.25018  eV     2   --> G_5  D_5       
     e( 21 - 22) =    -10.59099  eV     2   --> G_5  D_5       
     e( 23 - 24) =     -8.87990  eV     2   --> G_5  D_5       
     e( 25 - 26) =     -5.52197  eV     2   --> G_5  D_5       
     e( 27 - 28) =     -2.69052  eV     2   --> G_5  D_5       
     e( 29 - 30) =     -1.07860  eV     2   --> G_5  D_5       
     e( 31 - 32) =      0.66812  eV     2   --> G_5  D_5       
     e( 33 - 34) =      1.75404  eV     2   --> G_5  D_5       
     e( 35 - 36) =      2.47232  eV     2   --> G_5  D_5       
     e( 37 - 38) =      2.79494  eV     2   --> G_5  D_5       
     e( 39 - 40) =      3.95021  eV     2   --> G_5  D_5       
     e( 41 - 42) =      4.11575  eV     2   --> G_5  D_5       
     e( 43 - 44) =      4.67433  eV     2   --> G_5  D_5       
     e( 45 - 46) =      5.00508  eV     2   --> G_5  D_5       
     e( 47 - 48) =      5.29816  eV     2   --> G_5  D_5       
     e( 49 - 50) =      5.37054  eV     2   --> G_5  D_5       
     e( 51 - 52) =      5.78603  eV     2   --> G_5  D_5       
     e( 53 - 54) =      5.94361  eV     2   --> G_5  D_5       
     e( 55 - 56) =      6.15784  eV     2   --> G_5  D_5       
     e( 57 - 58) =      6.18174  eV     2   --> G_5  D_5       
     e( 59 - 60) =      6.28032  eV     2   --> G_5  D_5       

 **************************************************************************

 **************************************************************************

                    xk=(   0.53333,   0.00000,   0.00000  )

     Band symmetry, C_2v (mm2)  double point group:

     e(  1 -  2) =    -24.62517  eV     2   --> G_5  D_5       
     e(  3 -  4) =    -24.58916  eV     2   --> G_5  D_5       
     e(  5 -  6) =    -24.48706  eV     2   --> G_5  D_5       
     e(  7 -  8) =    -24.45125  eV     2   --> G_5  D_5       
     e(  9 - 10) =    -23.63613  eV     2   --> G_5  D_5       
     e( 11 - 12) =    -23.56400  eV     2   --> G_5  D_5       
     e( 13 - 14) =    -23.42718  eV     2   --> G_5  D_5       
     e( 15 - 16) =    -23.39479  eV     2   --> G_5  D_5       
     e( 17 - 18) =    -23.30220  eV     2   --> G_5  D_5       
     e( 19 - 20) =    -23.24804  eV     2   --> G_5  D_5       
     e( 21 - 22) =    -10.49950  eV     2   --> G_5  D_5       
     e( 23 - 24) =     -8.99678  eV     2   --> G_5  D_5       
     e( 25 - 26) =     -5.58248  eV     2   --> G_5  D_5       
     e( 27 - 28) =     -2.60164  eV     2   --> G_5  D_5       
     e( 29 - 30) =     -1.18417  eV     2   --> G_5  D_5       
     e( 31 - 32) =      0.78950  eV     2   --> G_5  D_5       
     e( 33 - 34) =      1.84235  eV     2   --> G_5  D_5       
     e( 35 - 36) =      2.41405  eV     2   --> G_5  D_5       
     e( 37 - 38) =      2.90006  eV     2   --> G_5  D_5       
     e( 39 - 40) =      4.05766  eV     2   --> G_5  D_5       
     e( 41 - 42) =      4.23214  eV     2   --> G_5  D_5       
     e( 43 - 44) =      4.57300  eV     2   --> G_5  D_5       
     e( 45 - 46) =      4.84342  eV     2   --> G_5  D_5       
     e( 47 - 48) =      5.35963  eV     2   --> G_5  D_5       
     e( 49 - 50) =      5.41887  eV     2   --> G_5  D_5       
     e( 51 - 52) =      5.68604  eV     2   --> G_5  D_5       
     e( 53 - 54) =      5.84635  eV     2   --> G_5  D_5       
     e( 55 - 56) =      6.05176  eV     2   --> G_5  D_5       
     e( 57 - 58) =      6.09014  eV     2   --> G_5  D_5       
     e( 59 - 60) =      6.17377  eV     2   --> G_5  D_5       

 **************************************************************************

 **************************************************************************

                    xk=(   0.55000,   0.00000,   0.00000  )

     Band symmetry, C_2v (mm2)  double point group:

     e(  1 -  2) =    -24.62505  eV     2   --> G_5  D_5       
     e(  3 -  4) =    -24.59118  eV     2   --> G_5  D_5       
     e(  5 -  6) =    -24.48724  eV     2   --> G_5  D_5       
     e(  7 -  8) =    -24.45080  eV     2   --> G_5  D_5       
     e(  9 - 10) =    -23.63458  eV     2   --> G_5  D_5       
     e( 11 - 12) =    -23.56655  eV     2   --> G_5  D_5       
     e( 13 - 14) =    -23.42741  eV     2   --> G_5  D_5       
     e( 15 - 16) =    -23.39404  eV     2   --> G_5  D_5       
     e( 17 - 18) =    -23.30128  eV     2   --> G_5  D_5       
     e( 19 - 20) =    -23.24609  eV     2   --> G_5  D_5       
     e( 21 - 22) =    -10.40750  eV     2   --> G_5  D_5       
     e( 23 - 24) =     -9.10952  eV     2   --> G_5  D_5       
     e( 25 - 26) =     -5.63757  eV     2   --> G_5  D_5       
     e( 27 - 28) =     -2.51252  eV     2   --> G_5  D_5       
     e( 29 - 30) =     -1.28685  eV     2   --> G_5  D_5       
     e( 31 - 32) =      0.91340  eV     2   --> G_5  D_5       
     e( 33 - 34) =      1.92746  eV     2   --> G_5  D_5       
     e( 35 - 36) =      2.36004  eV     2   --> G_5  D_5       
     e( 37 - 38) =      3.00638  eV     2   --> G_5  D_5       
     e( 39 - 40) =      4.16975  eV     2   --> G_5  D_5       
     e( 41 - 42) =      4.35009  eV     2   --> G_5  D_5       
     e( 43 - 44) =      4.47440  eV     2   --> G_5  D_5       
     e( 45 - 46) =      4.66490  eV     2   --> G_5  D_5       
     e( 47 - 48) =      5.30504  eV     2   --> G_5  D_5       
     e( 49 - 50) =      5.50829  eV     2   --> G_5  D_5       
     e( 51 - 52) =      5.58812  eV     2   --> G_5  D_5       
     e( 53 - 54) =      5.83474  eV     2   --> G_5  D_5       
     e( 55 - 56) =      5.94846  eV     2   --> G_5  D_5       
[...]
     e( 17 - 18) =    -23.34323  eV     2   --> G_5  D_5       
     e( 19 - 20) =    -23.32741  eV     2   --> G_5  D_5       
     e( 21 - 22) =    -12.06486  eV     2   --> G_5  D_5       
     e( 23 - 24) =     -5.17122  eV     2   --> G_5  D_5       
     e( 25 - 26) =     -4.17250  eV     2   --> G_5  D_5       
     e( 27 - 28) =     -3.59260  eV     2   --> G_5  D_5       
     e( 29 - 30) =     -2.03656  eV     2   --> G_5  D_5       
     e( 31 - 32) =      0.64936  eV     2   --> G_5  D_5       
     e( 33 - 34) =      1.13765  eV     2   --> G_5  D_5       
     e( 35 - 36) =      1.19032  eV     2   --> G_5  D_5       
     e( 37 - 38) =      1.85869  eV     2   --> G_5  D_5       
     e( 39 - 40) =      2.12673  eV     2   --> G_5  D_5       
     e( 41 - 42) =      2.42438  eV     2   --> G_5  D_5       
     e( 43 - 44) =      3.55664  eV     2   --> G_5  D_5       
     e( 45 - 46) =      3.79977  eV     2   --> G_5  D_5       
     e( 47 - 48) =      4.63813  eV     2   --> G_5  D_5       
     e( 49 - 50) =      5.66042  eV     2   --> G_5  D_5       
     e( 51 - 52) =      5.74170  eV     2   --> G_5  D_5       
     e( 53 - 54) =      6.10015  eV     2   --> G_5  D_5       
     e( 55 - 56) =      6.18417  eV     2   --> G_5  D_5       
     e( 57 - 58) =      7.35107  eV     2   --> G_5  D_5       
     e( 59 - 60) =      8.04384  eV     2   --> G_5  D_5       

 **************************************************************************

 **************************************************************************

                    xk=(   0.10000,   0.05774,   0.00000  )

     Band symmetry, C_2v (mm2)  double point group:

     e(  1 -  2) =    -24.61728  eV     2   --> G_5  D_5       
     e(  3 -  4) =    -24.51584  eV     2   --> G_5  D_5       
     e(  5 -  6) =    -24.47721  eV     2   --> G_5  D_5       
     e(  7 -  8) =    -24.45233  eV     2   --> G_5  D_5       
     e(  9 - 10) =    -23.64702  eV     2   --> G_5  D_5       
     e( 11 - 12) =    -23.49519  eV     2   --> G_5  D_5       
     e( 13 - 14) =    -23.48755  eV     2   --> G_5  D_5       
     e( 15 - 16) =    -23.39033  eV     2   --> G_5  D_5       
     e( 17 - 18) =    -23.34370  eV     2   --> G_5  D_5       
     e( 19 - 20) =    -23.33221  eV     2   --> G_5  D_5       
     e( 21 - 22) =    -12.09546  eV     2   --> G_5  D_5       
     e( 23 - 24) =     -4.94154  eV     2   --> G_5  D_5       
     e( 25 - 26) =     -4.20335  eV     2   --> G_5  D_5       
     e( 27 - 28) =     -3.53906  eV     2   --> G_5  D_5       
     e( 29 - 30) =     -2.20177  eV     2   --> G_5  D_5       
     e( 31 - 32) =      0.62585  eV     2   --> G_5  D_5       
     e( 33 - 34) =      1.03568  eV     2   --> G_5  D_5       
     e( 35 - 36) =      1.14369  eV     2   --> G_5  D_5       
     e( 37 - 38) =      1.97712  eV     2   --> G_5  D_5       
     e( 39 - 40) =      2.09523  eV     2   --> G_5  D_5       
     e( 41 - 42) =      2.39106  eV     2   --> G_5  D_5       
     e( 43 - 44) =      3.52669  eV     2   --> G_5  D_5       
     e( 45 - 46) =      3.76247  eV     2   --> G_5  D_5       
     e( 47 - 48) =      4.48002  eV     2   --> G_5  D_5       
     e( 49 - 50) =      5.70914  eV     2   --> G_5  D_5       
     e( 51 - 52) =      5.82394  eV     2   --> G_5  D_5       
     e( 53 - 54) =      6.10755  eV     2   --> G_5  D_5       
     e( 55 - 56) =      6.15272  eV     2   --> G_5  D_5       
     e( 57 - 58) =      7.27705  eV     2   --> G_5  D_5       
     e( 59 - 60) =      7.91525  eV     2   --> G_5  D_5       

 **************************************************************************

 **************************************************************************

                    xk=(   0.08333,   0.04811,   0.00000  )

     Band symmetry, C_2v (mm2)  double point group:

     e(  1 -  2) =    -24.61673  eV     2   --> G_5  D_5       
     e(  3 -  4) =    -24.51455  eV     2   --> G_5  D_5       
     e(  5 -  6) =    -24.47726  eV     2   --> G_5  D_5       
     e(  7 -  8) =    -24.45110  eV     2   --> G_5  D_5       
     e(  9 - 10) =    -23.64608  eV     2   --> G_5  D_5       
     e( 11 - 12) =    -23.49539  eV     2   --> G_5  D_5       
     e( 13 - 14) =    -23.49011  eV     2   --> G_5  D_5       
     e( 15 - 16) =    -23.38709  eV     2   --> G_5  D_5       
     e( 17 - 18) =    -23.34420  eV     2   --> G_5  D_5       
     e( 19 - 20) =    -23.33690  eV     2   --> G_5  D_5       
     e( 21 - 22) =    -12.12138  eV     2   --> G_5  D_5       
     e( 23 - 24) =     -4.71144  eV     2   --> G_5  D_5       
     e( 25 - 26) =     -4.22961  eV     2   --> G_5  D_5       
     e( 27 - 28) =     -3.49241  eV     2   --> G_5  D_5       
     e( 29 - 30) =     -2.38148  eV     2   --> G_5  D_5       
     e( 31 - 32) =      0.61311  eV     2   --> G_5  D_5       
     e( 33 - 34) =      0.94483  eV     2   --> G_5  D_5       
     e( 35 - 36) =      1.10859  eV     2   --> G_5  D_5       
     e( 37 - 38) =      2.06688  eV     2   --> G_5  D_5       
     e( 39 - 40) =      2.08561  eV     2   --> G_5  D_5       
     e( 41 - 42) =      2.36278  eV     2   --> G_5  D_5       
     e( 43 - 44) =      3.50120  eV     2   --> G_5  D_5       
     e( 45 - 46) =      3.72889  eV     2   --> G_5  D_5       
     e( 47 - 48) =      4.34283  eV     2   --> G_5  D_5       
     e( 49 - 50) =      5.73561  eV     2   --> G_5  D_5       
     e( 51 - 52) =      5.90377  eV     2   --> G_5  D_5       
     e( 53 - 54) =      6.12153  eV     2   --> G_5  D_5       
     e( 55 - 56) =      6.12896  eV     2   --> G_5  D_5       
     e( 57 - 58) =      7.23903  eV     2   --> G_5  D_5       
     e( 59 - 60) =      7.78493  eV     2   --> G_5  D_5       

 **************************************************************************

 **************************************************************************

                    xk=(   0.06667,   0.03849,   0.00000  )

     Band symmetry, C_2v (mm2)  double point group:

     e(  1 -  2) =    -24.61629  eV     2   --> G_5  D_5       
     e(  3 -  4) =    -24.51357  eV     2   --> G_5  D_5       
     e(  5 -  6) =    -24.47739  eV     2   --> G_5  D_5       
     e(  7 -  8) =    -24.45006  eV     2   --> G_5  D_5       
     e(  9 - 10) =    -23.64525  eV     2   --> G_5  D_5       
     e( 11 - 12) =    -23.49735  eV     2   --> G_5  D_5       
     e( 13 - 14) =    -23.49069  eV     2   --> G_5  D_5       
     e( 15 - 16) =    -23.38371  eV     2   --> G_5  D_5       
     e( 17 - 18) =    -23.34505  eV     2   --> G_5  D_5       
     e( 19 - 20) =    -23.34112  eV     2   --> G_5  D_5       
     e( 21 - 22) =    -12.14262  eV     2   --> G_5  D_5       
     e( 23 - 24) =     -4.48200  eV     2   --> G_5  D_5       
     e( 25 - 26) =     -4.25112  eV     2   --> G_5  D_5       
     e( 27 - 28) =     -3.45542  eV     2   --> G_5  D_5       
     e( 29 - 30) =     -2.57038  eV     2   --> G_5  D_5       
     e( 31 - 32) =      0.60454  eV     2   --> G_5  D_5       
     e( 33 - 34) =      0.87444  eV     2   --> G_5  D_5       
     e( 35 - 36) =      1.07937  eV     2   --> G_5  D_5       
     e( 37 - 38) =      2.04618  eV     2   --> G_5  D_5       
     e( 39 - 40) =      2.17678  eV     2   --> G_5  D_5       
     e( 41 - 42) =      2.33957  eV     2   --> G_5  D_5       
     e( 43 - 44) =      3.48027  eV     2   --> G_5  D_5       
     e( 45 - 46) =      3.69906  eV     2   --> G_5  D_5       
     e( 47 - 48) =      4.22878  eV     2   --> G_5  D_5       
     e( 49 - 50) =      5.74557  eV     2   --> G_5  D_5       
     e( 51 - 52) =      5.97852  eV     2   --> G_5  D_5       
     e( 53 - 54) =      6.10338  eV     2   --> G_5  D_5       
     e( 55 - 56) =      6.14197  eV     2   --> G_5  D_5       
     e( 57 - 58) =      7.24059  eV     2   --> G_5  D_5       
     e( 59 - 60) =      7.66848  eV     2   --> G_5  D_5       

 **************************************************************************

 **************************************************************************

                    xk=(   0.05000,   0.02887,   0.00000  )

     Band symmetry, C_2v (mm2)  double point group:

     e(  1 -  2) =    -24.61596  eV     2   --> G_5  D_5       
     e(  3 -  4) =    -24.51283  eV     2   --> G_5  D_5       
     e(  5 -  6) =    -24.47750  eV     2   --> G_5  D_5       
     e(  7 -  8) =    -24.44918  eV     2   --> G_5  D_5       
     e(  9 - 10) =    -23.64456  eV     2   --> G_5  D_5       
     e( 11 - 12) =    -23.49969  eV     2   --> G_5  D_5       
     e( 13 - 14) =    -23.49047  eV     2   --> G_5  D_5       
     e( 15 - 16) =    -23.38023  eV     2   --> G_5  D_5       
     e( 17 - 18) =    -23.34754  eV     2   --> G_5  D_5       
     e( 19 - 20) =    -23.34337  eV     2   --> G_5  D_5       
     e( 21 - 22) =    -12.15915  eV     2   --> G_5  D_5       
     e( 23 - 24) =     -4.27162  eV     2   --> G_5  D_5       
     e( 25 - 26) =     -4.25100  eV     2   --> G_5  D_5       
     e( 27 - 28) =     -3.43289  eV     2   --> G_5  D_5       
     e( 29 - 30) =     -2.76083  eV     2   --> G_5  D_5       
     e( 31 - 32) =      0.59439  eV     2   --> G_5  D_5       
     e( 33 - 34) =      0.82783  eV     2   --> G_5  D_5       
     e( 35 - 36) =      1.05551  eV     2   --> G_5  D_5       
     e( 37 - 38) =      2.02922  eV     2   --> G_5  D_5       
     e( 39 - 40) =      2.25189  eV     2   --> G_5  D_5       
     e( 41 - 42) =      2.32144  eV     2   --> G_5  D_5       
     e( 43 - 44) =      3.46394  eV     2   --> G_5  D_5       
     e( 45 - 46) =      3.67343  eV     2   --> G_5  D_5       
     e( 47 - 48) =      4.13961  eV     2   --> G_5  D_5       
     e( 49 - 50) =      5.74641  eV     2   --> G_5  D_5       
     e( 51 - 52) =      6.04420  eV     2   --> G_5  D_5       
     e( 53 - 54) =      6.08650  eV     2   --> G_5  D_5       
     e( 55 - 56) =      6.15204  eV     2   --> G_5  D_5       
     e( 57 - 58) =      7.27835  eV     2   --> G_5  D_5       
     e( 59 - 60) =      7.56957  eV     2   --> G_5  D_5       

 **************************************************************************

 **************************************************************************

                    xk=(   0.03333,   0.01925,   0.00000  )

     Band symmetry, C_2v (mm2)  double point group:

     e(  1 -  2) =    -24.61570  eV     2   --> G_5  D_5       
     e(  3 -  4) =    -24.51232  eV     2   --> G_5  D_5       
     e(  5 -  6) =    -24.47764  eV     2   --> G_5  D_5       
     e(  7 -  8) =    -24.44855  eV     2   --> G_5  D_5       
     e(  9 - 10) =    -23.64400  eV     2   --> G_5  D_5       
     e( 11 - 12) =    -23.50162  eV     2   --> G_5  D_5       
     e( 13 - 14) =    -23.49017  eV     2   --> G_5  D_5       
     e( 15 - 16) =    -23.37694  eV     2   --> G_5  D_5       
     e( 17 - 18) =    -23.35120  eV     2   --> G_5  D_5       
     e( 19 - 20) =    -23.34403  eV     2   --> G_5  D_5       
     e( 21 - 22) =    -12.17096  eV     2   --> G_5  D_5       
     e( 23 - 24) =     -4.28058  eV     2   --> G_5  D_5       
     e( 25 - 26) =     -4.03182  eV     2   --> G_5  D_5       
     e( 27 - 28) =     -3.43596  eV     2   --> G_5  D_5       
     e( 29 - 30) =     -2.93799  eV     2   --> G_5  D_5       
     e( 31 - 32) =      0.58143  eV     2   --> G_5  D_5       
     e( 33 - 34) =      0.80328  eV     2   --> G_5  D_5       
     e( 35 - 36) =      1.03741  eV     2   --> G_5  D_5       
     e( 37 - 38) =      2.01708  eV     2   --> G_5  D_5       
     e( 39 - 40) =      2.30751  eV     2   --> G_5  D_5       
     e( 41 - 42) =      2.30848  eV     2   --> G_5  D_5       
     e( 43 - 44) =      3.45227  eV     2   --> G_5  D_5       
     e( 45 - 46) =      3.65313  eV     2   --> G_5  D_5       
     e( 47 - 48) =      4.07621  eV     2   --> G_5  D_5       
     e( 49 - 50) =      5.74367  eV     2   --> G_5  D_5       
     e( 51 - 52) =      6.07424  eV     2   --> G_5  D_5       
     e( 53 - 54) =      6.09505  eV     2   --> G_5  D_5       
     e( 55 - 56) =      6.15691  eV     2   --> G_5  D_5       
     e( 57 - 58) =      7.33934  eV     2   --> G_5  D_5       
     e( 59 - 60) =      7.49295  eV     2   --> G_5  D_5       

 **************************************************************************

 **************************************************************************

                    xk=(   0.01667,   0.00962,   0.00000  )

     Band symmetry, C_2v (mm2)  double point group:

     e(  1 -  2) =    -24.61558  eV     2   --> G_5  D_5       
     e(  3 -  4) =    -24.51200  eV     2   --> G_5  D_5       
     e(  5 -  6) =    -24.47770  eV     2   --> G_5  D_5       
     e(  7 -  8) =    -24.44813  eV     2   --> G_5  D_5       
     e(  9 - 10) =    -23.64370  eV     2   --> G_5  D_5       
     e( 11 - 12) =    -23.50282  eV     2   --> G_5  D_5       
     e( 13 - 14) =    -23.48994  eV     2   --> G_5  D_5       
     e( 15 - 16) =    -23.37424  eV     2   --> G_5  D_5       
     e( 17 - 18) =    -23.35418  eV     2   --> G_5  D_5       
     e( 19 - 20) =    -23.34423  eV     2   --> G_5  D_5       
     e( 21 - 22) =    -12.17806  eV     2   --> G_5  D_5       
     e( 23 - 24) =     -4.28775  eV     2   --> G_5  D_5       
     e( 25 - 26) =     -3.82144  eV     2   --> G_5  D_5       
     e( 27 - 28) =     -3.49025  eV     2   --> G_5  D_5       
     e( 29 - 30) =     -3.06909  eV     2   --> G_5  D_5       
     e( 31 - 32) =      0.57007  eV     2   --> G_5  D_5       
     e( 33 - 34) =      0.79360  eV     2   --> G_5  D_5       
     e( 35 - 36) =      1.02591  eV     2   --> G_5  D_5       
     e( 37 - 38) =      2.00980  eV     2   --> G_5  D_5       
     e( 39 - 40) =      2.30064  eV     2   --> G_5  D_5       
     e( 41 - 42) =      2.34179  eV     2   --> G_5  D_5       
     e( 43 - 44) =      3.44526  eV     2   --> G_5  D_5       
     e( 45 - 46) =      3.63983  eV     2   --> G_5  D_5       
     e( 47 - 48) =      4.03854  eV     2   --> G_5  D_5       
     e( 49 - 50) =      5.74080  eV     2   --> G_5  D_5       
     e( 51 - 52) =      6.06699  eV     2   --> G_5  D_5       
     e( 53 - 54) =      6.12289  eV     2   --> G_5  D_5       
     e( 55 - 56) =      6.16295  eV     2   --> G_5  D_5       
     e( 57 - 58) =      7.39909  eV     2   --> G_5  D_5       
     e( 59 - 60) =      7.44449  eV     2   --> G_5  D_5       

 **************************************************************************

 **************************************************************************

                    xk=(   0.00000,   0.00000,   0.00000  )

     double point group D_6h(6/mmm)
     there are 18 classes and  6 irreducible representations
     the character table:

       E     -E    2C6   -2C6  2C3   -2C3  C2     3C2' 3C2''  i    -i    2S3  
                                           -C2   -3C2' -3C2'                  
G_7+   2.00 -2.00  1.73 -1.73  1.00 -1.00  0.00  0.00  0.00  2.00 -2.00  1.73
G_8+   2.00 -2.00 -1.73  1.73  1.00 -1.00  0.00  0.00  0.00  2.00 -2.00 -1.73
G_9+   2.00 -2.00  0.00  0.00 -2.00  2.00  0.00  0.00  0.00  2.00 -2.00  0.00
G_7-   2.00 -2.00  1.73 -1.73  1.00 -1.00  0.00  0.00  0.00 -2.00  2.00 -1.73
G_8-   2.00 -2.00 -1.73  1.73  1.00 -1.00  0.00  0.00  0.00 -2.00  2.00  1.73
G_9-   2.00 -2.00  0.00  0.00 -2.00  2.00  0.00  0.00  0.00 -2.00  2.00  0.00

       -2S3  2S6   -2S6   s_h   3s_v  3s_d
                         -s_h  -3s_v -3s_d
G_7+  -1.73  1.00 -1.00  0.00  0.00  0.00
G_8+   1.73  1.00 -1.00  0.00  0.00  0.00
G_9+   0.00 -2.00  2.00  0.00  0.00  0.00
G_7-   1.73 -1.00  1.00  0.00  0.00  0.00
G_8-  -1.73 -1.00  1.00  0.00  0.00  0.00
G_9-   0.00  2.00 -2.00  0.00  0.00  0.00

     the symmetry operations in each class and the name of the first element:

     E             1
                                                                 
     -E           -1
                                                                 
     2C6           5    6
                                                                 
     -2C6         -5   -6
                                                                 
     2C3           7    8
                                                                 
     -2C3         -7   -8
                                                                 
     C2   -C2      2   -2
                                                                 
      3C2'-3C2'    4   -4   12   11  -11  -12
                                                                 
     3C2''-3C2'    3   -3   -9   10  -10    9
                                                                 
      i           13
                                                                 
     -i          -13
                                                                 
     2S3          17   18
                                                                 
     -2S3        -17  -18
                                                                 
     2S6          19   20
                                                                 
     -2S6        -19  -20
                                                                 
      s_h -s_h    14  -14
                                                                 
      3s_v-3s_v   16  -16   24   23  -23  -24
                                                                 
      3s_d-3s_d   15  -15  -21   22  -22   21
                                                                 

     Band symmetry, D_6h(6/mmm) double point group:

     e(  1 -  2) =    -24.61553  eV     2   --> G_9+           
     e(  3 -  4) =    -24.51186  eV     2   --> G_7+           
     e(  5 -  6) =    -24.47768  eV     2   --> G_8-           
     e(  7 -  8) =    -24.44792  eV     2   --> G_9-           
     e(  9 - 10) =    -23.64359  eV     2   --> G_8+           
     e( 11 - 12) =    -23.50316  eV     2   --> G_9-           
     e( 13 - 14) =    -23.48983  eV     2   --> G_7+           
     e( 15 - 16) =    -23.37306  eV     2   --> G_7-           
     e( 17 - 18) =    -23.35538  eV     2   --> G_9+           
     e( 19 - 20) =    -23.34426  eV     2   --> G_8-           
     e( 21 - 22) =    -12.18042  eV     2   --> G_7+           
     e( 23 - 24) =     -4.29016  eV     2   --> G_7-           
     e( 25 - 26) =     -3.66742  eV     2   --> G_8-           
     e( 27 - 28) =     -3.58957  eV     2   --> G_8+           
     e( 29 - 30) =     -3.11546  eV     2   --> G_9+           
     e( 31 - 32) =      0.56559  eV     2   --> G_7-           
     e( 33 - 34) =      0.79134  eV     2   --> G_9-           
     e( 35 - 36) =      1.02194  eV     2   --> G_7+           
     e( 37 - 38) =      2.00737  eV     2   --> G_7-           
     e( 39 - 40) =      2.29803  eV     2   --> G_7+           
     e( 41 - 42) =      2.35335  eV     2   --> G_8+           
     e( 43 - 44) =      3.44292  eV     2   --> G_7-           
     e( 45 - 46) =      3.63517  eV     2   --> G_7+           
     e( 47 - 48) =      4.02609  eV     2   --> G_7+           
     e( 49 - 50) =      5.73964  eV     2   --> G_7-           
     e( 51 - 52) =      6.06456  eV     2   --> G_7+           
     e( 53 - 54) =      6.12946  eV     2   --> G_8-           
     e( 55 - 56) =      6.16784  eV     2   --> G_9-           
     e( 57 - 58) =      7.41978  eV     2   --> G_7+           
     e( 59 - 60) =      7.43337  eV     2   --> G_9+           

 **************************************************************************

     BANDS        :  27m52.21s CPU  32m59.60s WALL


   This run was terminated on:   0:23:30  29Jun2024            

=------------------------------------------------------------------------------=
   JOB DONE.
=------------------------------------------------------------------------------=
