
     Program PWSCF v.7.2 starts on 28Jun2024 at 18: 5:47 

     This program is part of the open-source Quantum ESPRESSO suite
     for quantum simulation of materials; please cite
         "P. Giannozzi et al., J. Phys.:Condens. Matter 21 395502 (2009);
         "P. Giannozzi et al., J. Phys.:Condens. Matter 29 465901 (2017);
         "P. Giannozzi et al., J. Chem. Phys. 152 154105 (2020);
          URL http://www.quantum-espresso.org", 
     in publications or presentations arising from this work. More details at
     http://www.quantum-espresso.org/quote

     Parallel version (MPI), running on     6 processors

     MPI processes distributed on     1 nodes
     6049 MiB available memory on the printing compute node when the environment starts

     Waiting for input...
     Reading input from standard input

     Current dimensions of program PWSCF are:
     Max number of different atomic species (ntypx) = 10
     Max number of k-points (npk) =  40000
     Max angular momentum in pseudopotentials (lmaxx) =  4

     Atomic positions and unit cell read from directory:
     ../tmp/stanene.save/
     Atomic positions from file used, from input discarded

     file Sn.rel-pbe-dn-kjpaw_psl.1.0.0.UPF: wavefunction(s)  5S 5P 5P 4D 4D renormalized

     R & G space division:  proc/nbgrp/npool/nimage =       6
     Subspace diagonalization in iterative solution of the eigenvalue problem:
     a serial algorithm will be used


     Parallelization info
     --------------------
     sticks:   dense  smooth     PW     G-vecs:    dense   smooth      PW
     Min         431     214     61                75909    26818    4015
     Max         432     215     62                75924    26841    4025
     Sum        2587    1285    367               455489   160939   24117

     Using Slab Decomposition



     bravais-lattice index     =            4
     lattice parameter (alat)  =       8.8506  a.u.
     unit-cell volume          =    2563.9136 (a.u.)^3
     number of atoms/cell      =            2
     number of atomic types    =            1
     number of electrons       =        28.00
     number of Kohn-Sham states=           60
     kinetic-energy cutoff     =      60.0000  Ry
     charge density cutoff     =     480.0000  Ry
     Exchange-correlation= SLA  PW   PBX  PBC
                           (   1   4   3   4   0   0   0)
     Non magnetic calculation with spin-orbit


     celldm(1)=   8.850584  celldm(2)=   0.000000  celldm(3)=   4.270286
     celldm(4)=   0.000000  celldm(5)=   0.000000  celldm(6)=   0.000000

     crystal axes: (cart. coord. in units of alat)
               a(1) = (   1.000000   0.000000   0.000000 )  
               a(2) = (  -0.500000   0.866025   0.000000 )  
               a(3) = (   0.000000   0.000000   4.270286 )  

     reciprocal axes: (cart. coord. in units 2 pi/alat)
               b(1) = (  1.000000  0.577350 -0.000000 )  
               b(2) = (  0.000000  1.154701  0.000000 )  
               b(3) = (  0.000000 -0.000000  0.234176 )  


     PseudoPot. # 1 for Sn read from file:
     ../pseudo/Sn.rel-pbe-dn-kjpaw_psl.1.0.0.UPF
     MD5 check sum: 5b106090e9f9887b12f0b328897b8753
     Pseudo is Projector augmented-wave + core cor, Zval = 14.0
     Generated using &quot;atomic&quot; code by A. Dal Corso  v.6.3
     Shape of augmentation charge: PSQ
     Using radial grid of 1243 points, 10 beta functions with: 
                l(1) =   0
                l(2) =   0
                l(3) =   1
                l(4) =   1
                l(5) =   1
                l(6) =   1
                l(7) =   2
                l(8) =   2
                l(9) =   2
               l(10) =   2
     Q(r) pseudized with 0 coefficients 


     atomic species   valence    mass     pseudopotential
        Sn            14.00   118.71000     Sn( 1.00)

     24 Sym. Ops., with inversion, found


                                    s                        frac. trans.

      isym =  1     identity                                     

 cryst.   s( 1) = (     1          0          0      )
                  (     0          1          0      )
                  (     0          0          1      )

 cart.    s( 1) = (  1.0000000  0.0000000  0.0000000 )
                  (  0.0000000  1.0000000  0.0000000 )
                  (  0.0000000  0.0000000  1.0000000 )


      isym =  2     180 deg rotation - cart. axis [0,0,1]        

 cryst.   s( 2) = (    -1          0          0      )
                  (     0         -1          0      )
                  (     0          0          1      )

 cart.    s( 2) = ( -1.0000000  0.0000000  0.0000000 )
                  (  0.0000000 -1.0000000  0.0000000 )
                  (  0.0000000  0.0000000  1.0000000 )


      isym =  3     180 deg rotation - cart. axis [0,1,0]        

 cryst.   s( 3) = (    -1          0          0      )
                  (     1          1          0      )
                  (     0          0         -1      )

 cart.    s( 3) = ( -1.0000000  0.0000000  0.0000000 )
                  (  0.0000000  1.0000000  0.0000000 )
                  (  0.0000000  0.0000000 -1.0000000 )


      isym =  4     180 deg rotation - cart. axis [1,0,0]        

 cryst.   s( 4) = (     1          0          0      )
                  (    -1         -1          0      )
                  (     0          0         -1      )

 cart.    s( 4) = (  1.0000000  0.0000000  0.0000000 )
                  (  0.0000000 -1.0000000  0.0000000 )
                  (  0.0000000  0.0000000 -1.0000000 )


      isym =  5      60 deg rotation - cryst. axis [0,0,1]       

 cryst.   s( 5) = (     1          1          0      )
                  (    -1          0          0      )
                  (     0          0          1      )

 cart.    s( 5) = (  0.5000000 -0.8660254  0.0000000 )
                  (  0.8660254  0.5000000  0.0000000 )
                  (  0.0000000  0.0000000  1.0000000 )


      isym =  6      60 deg rotation - cryst. axis [0,0,-1]      

 cryst.   s( 6) = (     0         -1          0      )
                  (     1          1          0      )
                  (     0          0          1      )

 cart.    s( 6) = (  0.5000000  0.8660254  0.0000000 )
                  ( -0.8660254  0.5000000  0.0000000 )
                  (  0.0000000  0.0000000  1.0000000 )


      isym =  7     120 deg rotation - cryst. axis [0,0,1]       

 cryst.   s( 7) = (     0          1          0      )
                  (    -1         -1          0      )
                  (     0          0          1      )

 cart.    s( 7) = ( -0.5000000 -0.8660254  0.0000000 )
                  (  0.8660254 -0.5000000  0.0000000 )
                  (  0.0000000  0.0000000  1.0000000 )


      isym =  8     120 deg rotation - cryst. axis [0,0,-1]      

 cryst.   s( 8) = (    -1         -1          0      )
                  (     1          0          0      )
                  (     0          0          1      )

 cart.    s( 8) = ( -0.5000000  0.8660254  0.0000000 )
                  ( -0.8660254 -0.5000000  0.0000000 )
                  (  0.0000000  0.0000000  1.0000000 )


      isym =  9     180 deg rotation - cryst. axis [1,-1,0]      

 cryst.   s( 9) = (     0         -1          0      )
                  (    -1          0          0      )
                  (     0          0         -1      )

 cart.    s( 9) = (  0.5000000 -0.8660254  0.0000000 )
                  ( -0.8660254 -0.5000000  0.0000000 )
                  (  0.0000000  0.0000000 -1.0000000 )


      isym = 10     180 deg rotation - cryst. axis [2,1,0]       

 cryst.   s(10) = (     1          1          0      )
                  (     0         -1          0      )
                  (     0          0         -1      )

 cart.    s(10) = (  0.5000000  0.8660254  0.0000000 )
                  (  0.8660254 -0.5000000  0.0000000 )
                  (  0.0000000  0.0000000 -1.0000000 )


      isym = 11     180 deg rotation - cryst. axis [0,1,0]       

 cryst.   s(11) = (    -1         -1          0      )
                  (     0          1          0      )
                  (     0          0         -1      )

 cart.    s(11) = ( -0.5000000 -0.8660254  0.0000000 )
                  ( -0.8660254  0.5000000  0.0000000 )
                  (  0.0000000  0.0000000 -1.0000000 )


      isym = 12     180 deg rotation - cryst. axis [1,1,0]       

 cryst.   s(12) = (     0          1          0      )
                  (     1          0          0      )
                  (     0          0         -1      )

 cart.    s(12) = ( -0.5000000  0.8660254  0.0000000 )
                  (  0.8660254  0.5000000  0.0000000 )
                  (  0.0000000  0.0000000 -1.0000000 )


      isym = 13     inversion                                    

 cryst.   s(13) = (    -1          0          0      )
                  (     0         -1          0      )
                  (     0          0         -1      )

 cart.    s(13) = ( -1.0000000  0.0000000  0.0000000 )
                  (  0.0000000 -1.0000000  0.0000000 )
                  (  0.0000000  0.0000000 -1.0000000 )


      isym = 14     inv. 180 deg rotation - cart. axis [0,0,1]   

 cryst.   s(14) = (     1          0          0      )
                  (     0          1          0      )
                  (     0          0         -1      )

 cart.    s(14) = (  1.0000000  0.0000000  0.0000000 )
                  (  0.0000000  1.0000000  0.0000000 )
                  (  0.0000000  0.0000000 -1.0000000 )


      isym = 15     inv. 180 deg rotation - cart. axis [0,1,0]   

 cryst.   s(15) = (     1          0          0      )
                  (    -1         -1          0      )
                  (     0          0          1      )

 cart.    s(15) = (  1.0000000  0.0000000  0.0000000 )
                  (  0.0000000 -1.0000000  0.0000000 )
                  (  0.0000000  0.0000000  1.0000000 )


      isym = 16     inv. 180 deg rotation - cart. axis [1,0,0]   

 cryst.   s(16) = (    -1          0          0      )
                  (     1          1          0      )
                  (     0          0          1      )

 cart.    s(16) = ( -1.0000000  0.0000000  0.0000000 )
                  (  0.0000000  1.0000000  0.0000000 )
                  (  0.0000000  0.0000000  1.0000000 )


      isym = 17     inv.  60 deg rotation - cryst. axis [0,0,1]  

 cryst.   s(17) = (    -1         -1          0      )
                  (     1          0          0      )
                  (     0          0         -1      )

 cart.    s(17) = ( -0.5000000  0.8660254  0.0000000 )
                  ( -0.8660254 -0.5000000  0.0000000 )
                  (  0.0000000  0.0000000 -1.0000000 )


      isym = 18     inv.  60 deg rotation - cryst. axis [0,0,-1] 

 cryst.   s(18) = (     0          1          0      )
                  (    -1         -1          0      )
                  (     0          0         -1      )

 cart.    s(18) = ( -0.5000000 -0.8660254  0.0000000 )
                  (  0.8660254 -0.5000000  0.0000000 )
                  (  0.0000000  0.0000000 -1.0000000 )


      isym = 19     inv. 120 deg rotation - cryst. axis [0,0,1]  

 cryst.   s(19) = (     0         -1          0      )
                  (     1          1          0      )
                  (     0          0         -1      )

 cart.    s(19) = (  0.5000000  0.8660254  0.0000000 )
                  ( -0.8660254  0.5000000  0.0000000 )
                  (  0.0000000  0.0000000 -1.0000000 )


      isym = 20     inv. 120 deg rotation - cryst. axis [0,0,-1] 

 cryst.   s(20) = (     1          1          0      )
                  (    -1          0          0      )
                  (     0          0         -1      )

 cart.    s(20) = (  0.5000000 -0.8660254  0.0000000 )
                  (  0.8660254  0.5000000  0.0000000 )
                  (  0.0000000  0.0000000 -1.0000000 )


      isym = 21     inv. 180 deg rotation - cryst. axis [1,-1,0] 

 cryst.   s(21) = (     0          1          0      )
                  (     1          0          0      )
                  (     0          0          1      )

 cart.    s(21) = ( -0.5000000  0.8660254  0.0000000 )
                  (  0.8660254  0.5000000  0.0000000 )
                  (  0.0000000  0.0000000  1.0000000 )


      isym = 22     inv. 180 deg rotation - cryst. axis [2,1,0]  

 cryst.   s(22) = (    -1         -1          0      )
                  (     0          1          0      )
                  (     0          0          1      )

 cart.    s(22) = ( -0.5000000 -0.8660254  0.0000000 )
                  ( -0.8660254  0.5000000  0.0000000 )
                  (  0.0000000  0.0000000  1.0000000 )


      isym = 23     inv. 180 deg rotation - cryst. axis [0,1,0]  

 cryst.   s(23) = (     1          1          0      )
                  (     0         -1          0      )
                  (     0          0          1      )

 cart.    s(23) = (  0.5000000  0.8660254  0.0000000 )
                  (  0.8660254 -0.5000000  0.0000000 )
                  (  0.0000000  0.0000000  1.0000000 )


      isym = 24     inv. 180 deg rotation - cryst. axis [1,1,0]  

 cryst.   s(24) = (     0         -1          0      )
                  (    -1          0          0      )
                  (     0          0          1      )

 cart.    s(24) = (  0.5000000 -0.8660254  0.0000000 )
                  ( -0.8660254 -0.5000000  0.0000000 )
                  (  0.0000000  0.0000000  1.0000000 )


     double point group D_6h(6/mmm)
     there are 18 classes and  6 irreducible representations
     the character table:

       E     -E    2C6   -2C6  2C3   -2C3  C2     3C2' 3C2''  i    -i    2S3  
                                           -C2   -3C2' -3C2'                  
G_7+   2.00 -2.00  1.73 -1.73  1.00 -1.00  0.00  0.00  0.00  2.00 -2.00  1.73
G_8+   2.00 -2.00 -1.73  1.73  1.00 -1.00  0.00  0.00  0.00  2.00 -2.00 -1.73
G_9+   2.00 -2.00  0.00  0.00 -2.00  2.00  0.00  0.00  0.00  2.00 -2.00  0.00
G_7-   2.00 -2.00  1.73 -1.73  1.00 -1.00  0.00  0.00  0.00 -2.00  2.00 -1.73
G_8-   2.00 -2.00 -1.73  1.73  1.00 -1.00  0.00  0.00  0.00 -2.00  2.00  1.73
G_9-   2.00 -2.00  0.00  0.00 -2.00  2.00  0.00  0.00  0.00 -2.00  2.00  0.00

       -2S3  2S6   -2S6   s_h   3s_v  3s_d
                         -s_h  -3s_v -3s_d
G_7+  -1.73  1.00 -1.00  0.00  0.00  0.00
G_8+   1.73  1.00 -1.00  0.00  0.00  0.00
G_9+   0.00 -2.00  2.00  0.00  0.00  0.00
G_7-   1.73 -1.00  1.00  0.00  0.00  0.00
G_8-  -1.73 -1.00  1.00  0.00  0.00  0.00
G_9-   0.00  2.00 -2.00  0.00  0.00  0.00

     the symmetry operations in each class and the name of the first element:

     E             1
          identity                                               
     -E           -1
          identity E                                             
     2C6           5    6
           60 deg rotation - cryst. axis [0,0,1]                 
     -2C6         -5   -6
           60 deg rotation - cryst. axis [0,0,1] E               
     2C3           7    8
          120 deg rotation - cryst. axis [0,0,1]                 
     -2C3         -7   -8
          120 deg rotation - cryst. axis [0,0,1] E               
     C2   -C2      2   -2
          180 deg rotation - cart. axis [0,0,1]                  
      3C2'-3C2'    4   -4   12   11  -11  -12
          180 deg rotation - cart. axis [1,0,0]                  
     3C2''-3C2'    3   -3   -9   10  -10    9
          180 deg rotation - cart. axis [0,1,0]                  
      i           13
          inversion                                              
     -i          -13
          inversion E                                            
     2S3          17   18
          inv.  60 deg rotation - cryst. axis [0,0,1]            
     -2S3        -17  -18
          inv.  60 deg rotation - cryst. axis [0,0,1] E          
     2S6          19   20
          inv. 120 deg rotation - cryst. axis [0,0,1]            
     -2S6        -19  -20
          inv. 120 deg rotation - cryst. axis [0,0,1] E          
      s_h -s_h    14  -14
          inv. 180 deg rotation - cart. axis [0,0,1]             
      3s_v-3s_v   16  -16   24   23  -23  -24
          inv. 180 deg rotation - cart. axis [1,0,0]             
      3s_d-3s_d   15  -15  -21   22  -22   21
          inv. 180 deg rotation - cart. axis [0,1,0]             

   Cartesian axes

     site n.     atom                  positions (alat units)
         1           Sn  tau(   1) = (   0.0000000   0.5773503   2.1351428  )
         2           Sn  tau(   2) = (   0.5000000   0.2886751   2.1351428  )

   Crystallographic axes

     site n.     atom                  positions (cryst. coord.)
         1           Sn  tau(   1) = (  0.3333333  0.6666667  0.5000000  )
         2           Sn  tau(   2) = (  0.6666667  0.3333333  0.5000000  )

     number of k points=    91  Methfessel-Paxton smearing, width (Ry)=  0.0200
                       cart. coord. in units 2pi/alat
        k(    1) = (   0.0000000   0.0000000   0.0000000), wk =   0.0109890
        k(    2) = (   0.0166667   0.0000000   0.0000000), wk =   0.0109890
        k(    3) = (   0.0333333   0.0000000   0.0000000), wk =   0.0109890
        k(    4) = (   0.0500000   0.0000000   0.0000000), wk =   0.0109890
        k(    5) = (   0.0666667   0.0000000   0.0000000), wk =   0.0109890
        k(    6) = (   0.0833333   0.0000000   0.0000000), wk =   0.0109890
        k(    7) = (   0.1000000   0.0000000   0.0000000), wk =   0.0109890
        k(    8) = (   0.1166667   0.0000000   0.0000000), wk =   0.0109890
        k(    9) = (   0.1333333   0.0000000   0.0000000), wk =   0.0109890
        k(   10) = (   0.1500000   0.0000000   0.0000000), wk =   0.0109890
        k(   11) = (   0.1666667   0.0000000   0.0000000), wk =   0.0109890
        k(   12) = (   0.1833333   0.0000000   0.0000000), wk =   0.0109890
        k(   13) = (   0.2000000   0.0000000   0.0000000), wk =   0.0109890
        k(   14) = (   0.2166667   0.0000000   0.0000000), wk =   0.0109890
        k(   15) = (   0.2333333   0.0000000   0.0000000), wk =   0.0109890
        k(   16) = (   0.2500000   0.0000000   0.0000000), wk =   0.0109890
        k(   17) = (   0.2666667   0.0000000   0.0000000), wk =   0.0109890
        k(   18) = (   0.2833333   0.0000000   0.0000000), wk =   0.0109890
        k(   19) = (   0.3000000   0.0000000   0.0000000), wk =   0.0109890
        k(   20) = (   0.3166667   0.0000000   0.0000000), wk =   0.0109890
        k(   21) = (   0.3333333   0.0000000   0.0000000), wk =   0.0109890
        k(   22) = (   0.3500000   0.0000000   0.0000000), wk =   0.0109890
        k(   23) = (   0.3666667   0.0000000   0.0000000), wk =   0.0109890
        k(   24) = (   0.3833333   0.0000000   0.0000000), wk =   0.0109890
        k(   25) = (   0.4000000   0.0000000   0.0000000), wk =   0.0109890
        k(   26) = (   0.4166667   0.0000000   0.0000000), wk =   0.0109890
        k(   27) = (   0.4333333   0.0000000   0.0000000), wk =   0.0109890
        k(   28) = (   0.4500000   0.0000000   0.0000000), wk =   0.0109890
        k(   29) = (   0.4666667   0.0000000   0.0000000), wk =   0.0109890
        k(   30) = (   0.4833333   0.0000000   0.0000000), wk =   0.0109890
        k(   31) = (   0.5000000   0.0000000   0.0000000), wk =   0.0109890
        k(   32) = (   0.5166667   0.0000000   0.0000000), wk =   0.0109890
        k(   33) = (   0.5333333   0.0000000   0.0000000), wk =   0.0109890
        k(   34) = (   0.5500000   0.0000000   0.0000000), wk =   0.0109890
        k(   35) = (   0.5666667   0.0000000   0.0000000), wk =   0.0109890
        k(   36) = (   0.5833333   0.0000000   0.0000000), wk =   0.0109890
        k(   37) = (   0.6000000   0.0000000   0.0000000), wk =   0.0109890
        k(   38) = (   0.6166667   0.0000000   0.0000000), wk =   0.0109890
        k(   39) = (   0.6333333   0.0000000   0.0000000), wk =   0.0109890
        k(   40) = (   0.6500000   0.0000000   0.0000000), wk =   0.0109890
        k(   41) = (   0.6666667   0.0000000   0.0000000), wk =   0.0109890
        k(   42) = (   0.6583333   0.0144338   0.0000000), wk =   0.0109890
        k(   43) = (   0.6500000   0.0288675   0.0000000), wk =   0.0109890
        k(   44) = (   0.6416667   0.0433013   0.0000000), wk =   0.0109890
        k(   45) = (   0.6333333   0.0577350   0.0000000), wk =   0.0109890
        k(   46) = (   0.6250000   0.0721688   0.0000000), wk =   0.0109890
        k(   47) = (   0.6166667   0.0866025   0.0000000), wk =   0.0109890
        k(   48) = (   0.6083333   0.1010363   0.0000000), wk =   0.0109890
        k(   49) = (   0.6000000   0.1154701   0.0000000), wk =   0.0109890
        k(   50) = (   0.5916667   0.1299038   0.0000000), wk =   0.0109890
        k(   51) = (   0.5833333   0.1443376   0.0000000), wk =   0.0109890
        k(   52) = (   0.5750000   0.1587713   0.0000000), wk =   0.0109890
        k(   53) = (   0.5666667   0.1732051   0.0000000), wk =   0.0109890
        k(   54) = (   0.5583333   0.1876388   0.0000000), wk =   0.0109890
        k(   55) = (   0.5500000   0.2020726   0.0000000), wk =   0.0109890
        k(   56) = (   0.5416667   0.2165064   0.0000000), wk =   0.0109890
        k(   57) = (   0.5333333   0.2309401   0.0000000), wk =   0.0109890
        k(   58) = (   0.5250000   0.2453739   0.0000000), wk =   0.0109890
        k(   59) = (   0.5166667   0.2598076   0.0000000), wk =   0.0109890
        k(   60) = (   0.5083333   0.2742414   0.0000000), wk =   0.0109890
        k(   61) = (   0.5000000   0.2886751   0.0000000), wk =   0.0109890
        k(   62) = (   0.4833333   0.2790526   0.0000000), wk =   0.0109890
        k(   63) = (   0.4666667   0.2694301   0.0000000), wk =   0.0109890
        k(   64) = (   0.4500000   0.2598076   0.0000000), wk =   0.0109890
        k(   65) = (   0.4333333   0.2501851   0.0000000), wk =   0.0109890
        k(   66) = (   0.4166667   0.2405626   0.0000000), wk =   0.0109890
        k(   67) = (   0.4000000   0.2309401   0.0000000), wk =   0.0109890
        k(   68) = (   0.3833333   0.2213176   0.0000000), wk =   0.0109890
        k(   69) = (   0.3666667   0.2116951   0.0000000), wk =   0.0109890
        k(   70) = (   0.3500000   0.2020726   0.0000000), wk =   0.0109890
        k(   71) = (   0.3333333   0.1924501   0.0000000), wk =   0.0109890
        k(   72) = (   0.3166667   0.1828276   0.0000000), wk =   0.0109890
        k(   73) = (   0.3000000   0.1732051   0.0000000), wk =   0.0109890
        k(   74) = (   0.2833333   0.1635826   0.0000000), wk =   0.0109890
        k(   75) = (   0.2666667   0.1539601   0.0000000), wk =   0.0109890
        k(   76) = (   0.2500000   0.1443376   0.0000000), wk =   0.0109890
        k(   77) = (   0.2333333   0.1347151   0.0000000), wk =   0.0109890
        k(   78) = (   0.2166667   0.1250926   0.0000000), wk =   0.0109890
        k(   79) = (   0.2000000   0.1154701   0.0000000), wk =   0.0109890
        k(   80) = (   0.1833333   0.1058475   0.0000000), wk =   0.0109890
        k(   81) = (   0.1666667   0.0962250   0.0000000), wk =   0.0109890
        k(   82) = (   0.1500000   0.0866025   0.0000000), wk =   0.0109890
        k(   83) = (   0.1333333   0.0769800   0.0000000), wk =   0.0109890
        k(   84) = (   0.1166667   0.0673575   0.0000000), wk =   0.0109890
        k(   85) = (   0.1000000   0.0577350   0.0000000), wk =   0.0109890
        k(   86) = (   0.0833333   0.0481125   0.0000000), wk =   0.0109890
        k(   87) = (   0.0666667   0.0384900   0.0000000), wk =   0.0109890
        k(   88) = (   0.0500000   0.0288675   0.0000000), wk =   0.0109890
        k(   89) = (   0.0333333   0.0192450   0.0000000), wk =   0.0109890
        k(   90) = (   0.0166667   0.0096225   0.0000000), wk =   0.0109890
        k(   91) = (   0.0000000   0.0000000   0.0000000), wk =   0.0109890

                       cryst. coord.
        k(    1) = (   0.0000000   0.0000000   0.0000000), wk =   0.0109890
        k(    2) = (   0.0166667  -0.0083333   0.0000000), wk =   0.0109890
        k(    3) = (   0.0333333  -0.0166667   0.0000000), wk =   0.0109890
        k(    4) = (   0.0500000  -0.0250000   0.0000000), wk =   0.0109890
        k(    5) = (   0.0666667  -0.0333333   0.0000000), wk =   0.0109890
        k(    6) = (   0.0833333  -0.0416667   0.0000000), wk =   0.0109890
        k(    7) = (   0.1000000  -0.0500000   0.0000000), wk =   0.0109890
        k(    8) = (   0.1166667  -0.0583333   0.0000000), wk =   0.0109890
        k(    9) = (   0.1333333  -0.0666667   0.0000000), wk =   0.0109890
        k(   10) = (   0.1500000  -0.0750000   0.0000000), wk =   0.0109890
        k(   11) = (   0.1666667  -0.0833333   0.0000000), wk =   0.0109890
        k(   12) = (   0.1833333  -0.0916667   0.0000000), wk =   0.0109890
        k(   13) = (   0.2000000  -0.1000000   0.0000000), wk =   0.0109890
        k(   14) = (   0.2166667  -0.1083333   0.0000000), wk =   0.0109890
        k(   15) = (   0.2333333  -0.1166667   0.0000000), wk =   0.0109890
        k(   16) = (   0.2500000  -0.1250000   0.0000000), wk =   0.0109890
        k(   17) = (   0.2666667  -0.1333333   0.0000000), wk =   0.0109890
        k(   18) = (   0.2833333  -0.1416667   0.0000000), wk =   0.0109890
        k(   19) = (   0.3000000  -0.1500000   0.0000000), wk =   0.0109890
        k(   20) = (   0.3166667  -0.1583333   0.0000000), wk =   0.0109890
        k(   21) = (   0.3333333  -0.1666667   0.0000000), wk =   0.0109890
        k(   22) = (   0.3500000  -0.1750000   0.0000000), wk =   0.0109890
        k(   23) = (   0.3666667  -0.1833333   0.0000000), wk =   0.0109890
        k(   24) = (   0.3833333  -0.1916667   0.0000000), wk =   0.0109890
        k(   25) = (   0.4000000  -0.2000000   0.0000000), wk =   0.0109890
        k(   26) = (   0.4166667  -0.2083333   0.0000000), wk =   0.0109890
        k(   27) = (   0.4333333  -0.2166667   0.0000000), wk =   0.0109890
        k(   28) = (   0.4500000  -0.2250000   0.0000000), wk =   0.0109890
        k(   29) = (   0.4666667  -0.2333333   0.0000000), wk =   0.0109890
        k(   30) = (   0.4833333  -0.2416667   0.0000000), wk =   0.0109890
        k(   31) = (   0.5000000  -0.2500000   0.0000000), wk =   0.0109890
        k(   32) = (   0.5166667  -0.2583333   0.0000000), wk =   0.0109890
        k(   33) = (   0.5333333  -0.2666667   0.0000000), wk =   0.0109890
        k(   34) = (   0.5500000  -0.2750000   0.0000000), wk =   0.0109890
        k(   35) = (   0.5666667  -0.2833333   0.0000000), wk =   0.0109890
        k(   36) = (   0.5833333  -0.2916667   0.0000000), wk =   0.0109890
        k(   37) = (   0.6000000  -0.3000000   0.0000000), wk =   0.0109890
        k(   38) = (   0.6166667  -0.3083333   0.0000000), wk =   0.0109890
        k(   39) = (   0.6333333  -0.3166667   0.0000000), wk =   0.0109890
        k(   40) = (   0.6500000  -0.3250000   0.0000000), wk =   0.0109890
        k(   41) = (   0.6666667  -0.3333333   0.0000000), wk =   0.0109890
        k(   42) = (   0.6583333  -0.3166667   0.0000000), wk =   0.0109890
        k(   43) = (   0.6500000  -0.3000000   0.0000000), wk =   0.0109890
        k(   44) = (   0.6416667  -0.2833333   0.0000000), wk =   0.0109890
        k(   45) = (   0.6333333  -0.2666667   0.0000000), wk =   0.0109890
        k(   46) = (   0.6250000  -0.2500000   0.0000000), wk =   0.0109890
        k(   47) = (   0.6166667  -0.2333333   0.0000000), wk =   0.0109890
        k(   48) = (   0.6083333  -0.2166667   0.0000000), wk =   0.0109890
        k(   49) = (   0.6000000  -0.2000000   0.0000000), wk =   0.0109890
        k(   50) = (   0.5916667  -0.1833333   0.0000000), wk =   0.0109890
        k(   51) = (   0.5833333  -0.1666667   0.0000000), wk =   0.0109890
        k(   52) = (   0.5750000  -0.1500000   0.0000000), wk =   0.0109890
        k(   53) = (   0.5666667  -0.1333333   0.0000000), wk =   0.0109890
        k(   54) = (   0.5583333  -0.1166667   0.0000000), wk =   0.0109890
        k(   55) = (   0.5500000  -0.1000000   0.0000000), wk =   0.0109890
        k(   56) = (   0.5416667  -0.0833333   0.0000000), wk =   0.0109890
        k(   57) = (   0.5333333  -0.0666667   0.0000000), wk =   0.0109890
        k(   58) = (   0.5250000  -0.0500000   0.0000000), wk =   0.0109890
        k(   59) = (   0.5166667  -0.0333333   0.0000000), wk =   0.0109890
        k(   60) = (   0.5083333  -0.0166667   0.0000000), wk =   0.0109890
        k(   61) = (   0.5000000   0.0000000   0.0000000), wk =   0.0109890
        k(   62) = (   0.4833333  -0.0000000   0.0000000), wk =   0.0109890
        k(   63) = (   0.4666667   0.0000000   0.0000000), wk =   0.0109890
        k(   64) = (   0.4500000   0.0000000   0.0000000), wk =   0.0109890
        k(   65) = (   0.4333333  -0.0000000   0.0000000), wk =   0.0109890
        k(   66) = (   0.4166667   0.0000000   0.0000000), wk =   0.0109890
        k(   67) = (   0.4000000   0.0000000   0.0000000), wk =   0.0109890
        k(   68) = (   0.3833333   0.0000000   0.0000000), wk =   0.0109890
        k(   69) = (   0.3666667   0.0000000   0.0000000), wk =   0.0109890
        k(   70) = (   0.3500000   0.0000000   0.0000000), wk =   0.0109890
        k(   71) = (   0.3333333   0.0000000   0.0000000), wk =   0.0109890
        k(   72) = (   0.3166667   0.0000000   0.0000000), wk =   0.0109890
        k(   73) = (   0.3000000   0.0000000   0.0000000), wk =   0.0109890
        k(   74) = (   0.2833333   0.0000000   0.0000000), wk =   0.0109890
        k(   75) = (   0.2666667   0.0000000   0.0000000), wk =   0.0109890
        k(   76) = (   0.2500000   0.0000000   0.0000000), wk =   0.0109890
        k(   77) = (   0.2333333   0.0000000   0.0000000), wk =   0.0109890
        k(   78) = (   0.2166667  -0.0000000   0.0000000), wk =   0.0109890
        k(   79) = (   0.2000000   0.0000000   0.0000000), wk =   0.0109890
        k(   80) = (   0.1833333   0.0000000   0.0000000), wk =   0.0109890
        k(   81) = (   0.1666667   0.0000000   0.0000000), wk =   0.0109890
        k(   82) = (   0.1500000   0.0000000   0.0000000), wk =   0.0109890
        k(   83) = (   0.1333333   0.0000000   0.0000000), wk =   0.0109890
        k(   84) = (   0.1166667   0.0000000   0.0000000), wk =   0.0109890
        k(   85) = (   0.1000000   0.0000000   0.0000000), wk =   0.0109890
        k(   86) = (   0.0833333   0.0000000   0.0000000), wk =   0.0109890
        k(   87) = (   0.0666667   0.0000000   0.0000000), wk =   0.0109890
        k(   88) = (   0.0500000   0.0000000   0.0000000), wk =   0.0109890
        k(   89) = (   0.0333333   0.0000000   0.0000000), wk =   0.0109890
        k(   90) = (   0.0166667   0.0000000   0.0000000), wk =   0.0109890
        k(   91) = (   0.0000000   0.0000000   0.0000000), wk =   0.0109890

     Dense  grid:   455489 G-vectors     FFT dimensions: (  64,  64, 270)

     Smooth grid:   160939 G-vectors     FFT dimensions: (  45,  45, 192)

     Dynamical RAM for                 wfc:       6.14 MB

     Dynamical RAM for     wfc (w. buffer):       6.14 MB

     Dynamical RAM for           str. fact:       1.16 MB

     Dynamical RAM for           local pot:       0.00 MB

     Dynamical RAM for          nlocal pot:       3.48 MB

     Dynamical RAM for                qrad:       4.60 MB

     Dynamical RAM for          rho,v,vnew:      30.77 MB

     Dynamical RAM for           G-vectors:       4.55 MB

     Dynamical RAM for          h,s,v(r/c):       0.66 MB

     Dynamical RAM for          <psi|beta>:       0.12 MB

     Dynamical RAM for                 psi:      12.28 MB

     Dynamical RAM for                hpsi:      12.28 MB

     Dynamical RAM for                spsi:      12.28 MB

     Dynamical RAM for      wfcinit/wfcrot:       9.29 MB

     Dynamical RAM for           addusdens:     708.89 MB

     Estimated static dynamical RAM per process >      64.27 MB

     Estimated max dynamical RAM per process >     773.16 MB

     Estimated total dynamical RAM >       4.53 GB

     The potential is recalculated from file :
     ../tmp/stanene.save/charge-density


     negative rho (up, down):  3.305E-04 0.000E+00
     Starting wfcs are   36 randomized atomic wfcs +   24 random wfcs
     Checking if some PAW data can be deallocated... 

     Band Structure Calculation
     Davidson diagonalization with overlap

     Computing kpt #:     1  of    91
     total cpu time spent up to now is      166.6 secs

     Computing kpt #:     2  of    91
     total cpu time spent up to now is      238.1 secs

     Computing kpt #:     3  of    91
     total cpu time spent up to now is      316.0 secs

     Computing kpt #:     4  of    91
     total cpu time spent up to now is      393.0 secs

     Computing kpt #:     5  of    91
     total cpu time spent up to now is      467.1 secs

     Computing kpt #:     6  of    91
     total cpu time spent up to now is      540.4 secs

     Computing kpt #:     7  of    91
     total cpu time spent up to now is      621.8 secs

     Computing kpt #:     8  of    91
     total cpu time spent up to now is      716.6 secs

     Computing kpt #:     9  of    91
     total cpu time spent up to now is      836.8 secs

     Computing kpt #:    10  of    91
     total cpu time spent up to now is      921.5 secs

     Computing kpt #:    11  of    91
     total cpu time spent up to now is     1011.3 secs

     Computing kpt #:    12  of    91
     total cpu time spent up to now is     1088.2 secs

     Computing kpt #:    13  of    91
     total cpu time spent up to now is     1170.8 secs

     Computing kpt #:    14  of    91
     total cpu time spent up to now is     1254.3 secs

     Computing kpt #:    15  of    91
     total cpu time spent up to now is     1336.4 secs

     Computing kpt #:    16  of    91
     total cpu time spent up to now is     1442.8 secs

     Computing kpt #:    17  of    91
     total cpu time spent up to now is     1561.6 secs

     Computing kpt #:    18  of    91
     total cpu time spent up to now is     1655.2 secs

     Computing kpt #:    19  of    91
     total cpu time spent up to now is     1737.2 secs

     Computing kpt #:    20  of    91
     total cpu time spent up to now is     1836.1 secs

     Computing kpt #:    21  of    91
     total cpu time spent up to now is     1937.0 secs

     Computing kpt #:    22  of    91
     total cpu time spent up to now is     2062.2 secs

     Computing kpt #:    23  of    91
     c_bands:  2 eigenvalues not converged
     total cpu time spent up to now is     2262.7 secs

     Computing kpt #:    24  of    91
     c_bands:  2 eigenvalues not converged
     total cpu time spent up to now is     2434.9 secs

     Computing kpt #:    25  of    91
     c_bands:  1 eigenvalues not converged
     total cpu time spent up to now is     2610.6 secs

     Computing kpt #:    26  of    91
     total cpu time spent up to now is     2747.1 secs

     Computing kpt #:    27  of    91
     total cpu time spent up to now is     2875.8 secs

     Computing kpt #:    28  of    91
     total cpu time spent up to now is     2993.3 secs

     Computing kpt #:    29  of    91
     total cpu time spent up to now is     3126.0 secs

     Computing kpt #:    30  of    91
     total cpu time spent up to now is     3252.5 secs

     Computing kpt #:    31  of    91
     total cpu time spent up to now is     3357.7 secs

     Computing kpt #:    32  of    91
     total cpu time spent up to now is     3446.5 secs

     Computing kpt #:    33  of    91
     total cpu time spent up to now is     3527.0 secs

     Computing kpt #:    34  of    91
     total cpu time spent up to now is     3607.2 secs

     Computing kpt #:    35  of    91
     total cpu time spent up to now is     3691.1 secs

     Computing kpt #:    36  of    91
     total cpu time spent up to now is     3766.8 secs

     Computing kpt #:    37  of    91
     total cpu time spent up to now is     3842.4 secs

     Computing kpt #:    38  of    91
     total cpu time spent up to now is     3932.8 secs

     Computing kpt #:    39  of    91
     total cpu time spent up to now is     4020.8 secs

     Computing kpt #:    40  of    91
     total cpu time spent up to now is     4143.9 secs

     Computing kpt #:    41  of    91
     total cpu time spent up to now is     4242.1 secs

     Computing kpt #:    42  of    91
     total cpu time spent up to now is     4341.3 secs

     Computing kpt #:    43  of    91
     c_bands:  1 eigenvalues not converged
     total cpu time spent up to now is     4510.5 secs

     Computing kpt #:    44  of    91
     total cpu time spent up to now is     4634.3 secs

     Computing kpt #:    45  of    91
     total cpu time spent up to now is     4744.6 secs

     Computing kpt #:    46  of    91
     total cpu time spent up to now is     4856.4 secs

     Computing kpt #:    47  of    91
     total cpu time spent up to now is     4949.9 secs

     Computing kpt #:    48  of    91
     total cpu time spent up to now is     5048.6 secs

     Computing kpt #:    49  of    91
     total cpu time spent up to now is     5155.7 secs

     Computing kpt #:    50  of    91
     total cpu time spent up to now is     5242.3 secs

     Computing kpt #:    51  of    91
     total cpu time spent up to now is     5334.7 secs

     Computing kpt #:    52  of    91
     total cpu time spent up to now is     5439.5 secs

     Computing kpt #:    53  of    91
     total cpu time spent up to now is     5552.7 secs

     Computing kpt #:    54  of    91
     total cpu time spent up to now is     5644.6 secs

     Computing kpt #:    55  of    91
     total cpu time spent up to now is     5751.6 secs

     Computing kpt #:    56  of    91
     total cpu time spent up to now is     5859.6 secs

     Computing kpt #:    57  of    91
     total cpu time spent up to now is     5954.9 secs

     Computing kpt #:    58  of    91
     total cpu time spent up to now is     6063.4 secs

     Computing kpt #:    59  of    91
     total cpu time spent up to now is     6165.0 secs

     Computing kpt #:    60  of    91
     total cpu time spent up to now is     6268.6 secs

     Computing kpt #:    61  of    91
     total cpu time spent up to now is     6382.8 secs

     Computing kpt #:    62  of    91
     total cpu time spent up to now is     6463.1 secs

     Computing kpt #:    63  of    91
     total cpu time spent up to now is     6544.7 secs

     Computing kpt #:    64  of    91
     total cpu time spent up to now is     6621.5 secs

     Computing kpt #:    65  of    91
     total cpu time spent up to now is     6704.1 secs

     Computing kpt #:    66  of    91
     total cpu time spent up to now is     6788.6 secs

     Computing kpt #:    67  of    91
     total cpu time spent up to now is     6885.1 secs

     Computing kpt #:    68  of    91
     total cpu time spent up to now is     7006.2 secs

     Computing kpt #:    69  of    91
     total cpu time spent up to now is     7121.5 secs

     Computing kpt #:    70  of    91
     total cpu time spent up to now is     7220.6 secs

     Computing kpt #:    71  of    91
     total cpu time spent up to now is     7306.0 secs

     Computing kpt #:    72  of    91
     total cpu time spent up to now is     7387.5 secs

     Computing kpt #:    73  of    91
     total cpu time spent up to now is     7478.0 secs

     Computing kpt #:    74  of    91
     total cpu time spent up to now is     7617.6 secs

     Computing kpt #:    75  of    91
     total cpu time spent up to now is     7743.1 secs

     Computing kpt #:    76  of    91
     total cpu time spent up to now is     7867.0 secs

     Computing kpt #:    77  of    91
     total cpu time spent up to now is     7990.9 secs

     Computing kpt #:    78  of    91
     total cpu time spent up to now is     8132.2 secs

     Computing kpt #:    79  of    91
     total cpu time spent up to now is     8239.8 secs

     Computing kpt #:    80  of    91
     total cpu time spent up to now is     8318.1 secs

     Computing kpt #:    81  of    91
     total cpu time spent up to now is     8386.1 secs

     Computing kpt #:    82  of    91
     total cpu time spent up to now is     8456.3 secs

     Computing kpt #:    83  of    91
     total cpu time spent up to now is     8522.1 secs

     Computing kpt #:    84  of    91
     total cpu time spent up to now is     8616.2 secs

     Computing kpt #:    85  of    91
     total cpu time spent up to now is     8693.1 secs

     Computing kpt #:    86  of    91
     total cpu time spent up to now is     8764.1 secs

     Computing kpt #:    87  of    91
     total cpu time spent up to now is     8823.2 secs

     Computing kpt #:    88  of    91
     total cpu time spent up to now is     8884.4 secs

     Computing kpt #:    89  of    91
     total cpu time spent up to now is     8964.2 secs

     Computing kpt #:    90  of    91
     total cpu time spent up to now is     9035.4 secs

     Computing kpt #:    91  of    91
     total cpu time spent up to now is     9111.1 secs

     ethr =  3.57E-10,  avg # of iterations = 53.3

     total cpu time spent up to now is     9111.2 secs

     End of band structure calculation

          k = 0.0000 0.0000 0.0000 ( 20025 PWs)   bands (ev):

   -24.6155 -24.6155 -24.5119 -24.5119 -24.4777 -24.4777 -24.4479 -24.4479
   -23.6436 -23.6436 -23.5032 -23.5032 -23.4898 -23.4898 -23.3731 -23.3731
   -23.3554 -23.3554 -23.3443 -23.3443 -12.1804 -12.1804  -4.2902  -4.2902
    -3.6674  -3.6674  -3.5896  -3.5896  -3.1155  -3.1155   0.5656   0.5656
     0.7913   0.7913   1.0219   1.0219   2.0074   2.0074   2.2980   2.2980
     2.3533   2.3533   3.4429   3.4429   3.6352   3.6352   4.0261   4.0261
     5.7396   5.7396   6.0646   6.0646   6.1295   6.1295   6.1678   6.1678
     7.4198   7.4198   7.4334   7.4334

          k = 0.0167 0.0000 0.0000 ( 20053 PWs)   bands (ev):

   -24.6156 -24.6156 -24.5120 -24.5120 -24.4777 -24.4777 -24.4481 -24.4481
   -23.6437 -23.6437 -23.5029 -23.5029 -23.4899 -23.4899 -23.3740 -23.3740
   -23.3545 -23.3545 -23.3443 -23.3443 -12.1786 -12.1786  -4.2884  -4.2884
    -3.7950  -3.7950  -3.5030  -3.5030  -3.0807  -3.0807   0.5690   0.5690
     0.7930   0.7930   1.0249   1.0249   2.0092   2.0092   2.3000   2.3000
     2.3447   2.3447   3.4447   3.4447   3.6387   3.6387   4.0354   4.0354
     5.7405   5.7405   6.0664   6.0664   6.1247   6.1247   6.1640   6.1640
     7.4050   7.4050   7.4406   7.4406

          k = 0.0333 0.0000 0.0000 ( 20039 PWs)   bands (ev):

   -24.6156 -24.6156 -24.5122 -24.5122 -24.4777 -24.4777 -24.4484 -24.4484
   -23.6439 -23.6439 -23.5020 -23.5020 -23.4901 -23.4901 -23.3761 -23.3761
   -23.3521 -23.3521 -23.3441 -23.3441 -12.1733 -12.1733  -4.2830  -4.2830
    -3.9738  -3.9738  -3.4441  -3.4441  -2.9795  -2.9795   0.5779   0.5779
     0.7996   0.7996   1.0336   1.0336   2.0147   2.0147   2.3058   2.3058
     2.3189   2.3189   3.4499   3.4499   3.6488   3.6488   4.0636   4.0636
     5.7428   5.7428   6.0718   6.0718   6.1042   6.1042   6.1591   6.1591
     7.3557   7.3557   7.4779   7.4779

          k = 0.0500 0.0000 0.0000 ( 20033 PWs)   bands (ev):

   -24.6159 -24.6159 -24.5126 -24.5126 -24.4776 -24.4776 -24.4489 -24.4489
   -23.6443 -23.6443 -23.5005 -23.5005 -23.4903 -23.4903 -23.3789 -23.3789
   -23.3490 -23.3490 -23.3437 -23.3437 -12.1645 -12.1645  -4.2742  -4.2742
    -4.1635  -4.1635  -3.4304  -3.4304  -2.8346  -2.8346   0.5889   0.5889
     0.8161   0.8161   1.0475   1.0475   2.0238   2.0238   2.2767   2.2767
     2.3156   2.3156   3.4587   3.4587   3.6645   3.6645   4.1110   4.1110
     5.7450   5.7450   6.0627   6.0627   6.0811   6.0811   6.1600   6.1600
     7.2958   7.2958   7.5403   7.5403

          k = 0.0667 0.0000 0.0000 ( 20023 PWs)   bands (ev):

   -24.6161 -24.6161 -24.5132 -24.5132 -24.4774 -24.4774 -24.4496 -24.4496
   -23.6449 -23.6449 -23.4986 -23.4986 -23.4906 -23.4906 -23.3819 -23.3819
   -23.3461 -23.3461 -23.3427 -23.3427 -12.1521 -12.1521  -4.3597  -4.3597
    -4.2605  -4.2605  -3.4425  -3.4425  -2.6716  -2.6716   0.5973   0.5973
     0.8486   0.8486   1.0658   1.0658   2.0365   2.0365   2.2193   2.2193
     2.3292   2.3292   3.4709   3.4709   3.6847   3.6847   4.1778   4.1778
     5.7432   5.7432   6.0067   6.0067   6.0938   6.0938   6.1657   6.1657
     7.2399   7.2399   7.6257   7.6257

          k = 0.0833 0.0000 0.0000 ( 20017 PWs)   bands (ev):

   -24.6165 -24.6165 -24.5139 -24.5139 -24.4773 -24.4773 -24.4504 -24.4504
   -23.6456 -23.6456 -23.4966 -23.4966 -23.4907 -23.4907 -23.3848 -23.3848
   -23.3446 -23.3446 -23.3399 -23.3399 -12.1361 -12.1361  -4.5567  -4.5567
    -4.2446  -4.2446  -3.4698  -3.4698  -2.5039  -2.5039   0.6003   0.6003
     0.9015   0.9015   1.0882   1.0882   2.0529   2.0529   2.1482   2.1482
     2.3467   2.3467   3.4866   3.4866   3.7085   3.7085   4.2637   4.2637
     5.7269   5.7269   5.9494   5.9494   6.1102   6.1102   6.1750   6.1750
     7.1952   7.1952   7.7321   7.7321

          k = 0.1000 0.0000 0.0000 ( 20001 PWs)   bands (ev):

   -24.6168 -24.6168 -24.5148 -24.5148 -24.4772 -24.4772 -24.4513 -24.4513
   -23.6463 -23.6463 -23.4952 -23.4952 -23.4897 -23.4897 -23.3877 -23.3877
   -23.3440 -23.3440 -23.3360 -23.3360 -12.1167 -12.1167  -4.7548  -4.7548
    -4.2249  -4.2249  -3.5079  -3.5079  -2.3372  -2.3372   0.5987   0.5987
     0.9753   0.9753   1.1146   1.1146   2.0648   2.0648   2.0729   2.0729
     2.3679   2.3679   3.5057   3.5057   3.7352   3.7352   4.3678   4.3678
     5.6772   5.6772   5.9133   5.9133   6.1302   6.1302   6.1878   6.1878
     7.1638   7.1638   7.8576   7.8576

          k = 0.1167 0.0000 0.0000 ( 20029 PWs)   bands (ev):

   -24.6174 -24.6174 -24.5159 -24.5159 -24.4772 -24.4772 -24.4524 -24.4524
   -23.6471 -23.6471 -23.4953 -23.4953 -23.4872 -23.4872 -23.3906 -23.3906
   -23.3436 -23.3436 -23.3320 -23.3320 -12.0937 -12.0937  -4.9528  -4.9528
    -4.2017  -4.2017  -3.5547  -3.5547  -2.1747  -2.1747   0.5948   0.5948
     1.0672   1.0672   1.1465   1.1465   1.9713   1.9713   2.0965   2.0965
     2.3930   2.3930   3.5282   3.5282   3.7646   3.7646   4.4887   4.4887
     5.5888   5.5888   5.9074   5.9074   6.1539   6.1539   6.2041   6.2041
     7.1455   7.1455   8.0002   8.0002

          k = 0.1333 0.0000 0.0000 ( 20035 PWs)   bands (ev):

   -24.6178 -24.6178 -24.5172 -24.5172 -24.4772 -24.4772 -24.4535 -24.4535
   -23.6479 -23.6479 -23.4962 -23.4962 -23.4838 -23.4838 -23.3931 -23.3931
   -23.3432 -23.3432 -23.3278 -23.3278 -12.0672 -12.0672  -5.1500  -5.1500
    -4.1752  -4.1752  -3.6089  -3.6089  -2.0179  -2.0179   0.5911   0.5911
     1.1554   1.1554   1.2037   1.2037   1.8698   1.8698   2.1238   2.1238
     2.4218   2.4218   3.5538   3.5538   3.7969   3.7969   4.6251   4.6251
     5.4760   5.4760   5.9209   5.9209   6.1812   6.1812   6.2238   6.2238
     7.1388   7.1388   8.1525   8.1525

          k = 0.1500 0.0000 0.0000 ( 20063 PWs)   bands (ev):

   -24.6185 -24.6185 -24.5188 -24.5188 -24.4773 -24.4773 -24.4546 -24.4546
   -23.6488 -23.6488 -23.4975 -23.4975 -23.4799 -23.4799 -23.3955 -23.3955
   -23.3426 -23.3426 -23.3236 -23.3236 -12.0372 -12.0372  -5.3458  -5.3458
    -4.1455  -4.1455  -3.6695  -3.6695  -1.8677  -1.8677   0.5893   0.5893
     1.2016   1.2016   1.3211   1.3211   1.7639   1.7639   2.1546   2.1546
     2.4544   2.4544   3.5825   3.5825   3.8321   3.8321   4.7751   4.7751
     5.3507   5.3507   5.9451   5.9451   6.2120   6.2120   6.2470   6.2470
     7.1420   7.1420   7.9802   7.9802

          k = 0.1667 0.0000 0.0000 ( 20061 PWs)   bands (ev):

   -24.6190 -24.6190 -24.5205 -24.5205 -24.4774 -24.4774 -24.4557 -24.4557
   -23.6495 -23.6495 -23.4990 -23.4990 -23.4756 -23.4756 -23.3976 -23.3976
   -23.3420 -23.3420 -23.3194 -23.3194 -12.0038 -12.0038  -5.5398  -5.5398
    -4.1130  -4.1130  -3.7353  -3.7353  -1.7244  -1.7244   0.5906   0.5906
     1.2416   1.2416   1.4492   1.4492   1.6680   1.6680   2.1889   2.1889
     2.4907   2.4907   3.6140   3.6140   3.8703   3.8703   4.9369   4.9369
     5.2194   5.2194   5.9763   5.9763   6.2463   6.2463   6.2736   6.2736
     7.1536   7.1536   7.7942   7.7942

          k = 0.1833 0.0000 0.0000 ( 20065 PWs)   bands (ev):

   -24.6197 -24.6197 -24.5225 -24.5225 -24.4775 -24.4775 -24.4566 -24.4566
   -23.6502 -23.6502 -23.5008 -23.5008 -23.4712 -23.4712 -23.3995 -23.3995
   -23.3412 -23.3412 -23.3152 -23.3152 -11.9669 -11.9669  -5.7317  -5.7317
    -4.0789  -4.0789  -3.8046  -3.8046  -1.5880  -1.5880   0.5959   0.5959
     1.2834   1.2834   1.4701   1.4701   1.6922   1.6922   2.2269   2.2269
     2.5308   2.5308   3.6478   3.6478   3.9116   3.9116   5.0788   5.0788
     5.1161   5.1161   6.0129   6.0129   6.2839   6.2839   6.3035   6.3035
     7.1723   7.1723   7.6116   7.6116

          k = 0.2000 0.0000 0.0000 ( 20079 PWs)   bands (ev):

   -24.6203 -24.6203 -24.5247 -24.5247 -24.4778 -24.4778 -24.4574 -24.4574
   -23.6508 -23.6508 -23.5029 -23.5029 -23.4667 -23.4667 -23.4011 -23.4011
   -23.3403 -23.3403 -23.3111 -23.3111 -11.9266 -11.9266  -5.9212  -5.9212
    -4.0470  -4.0470  -3.8730  -3.8730  -1.4581  -1.4581   0.6054   0.6054
     1.3262   1.3262   1.3683   1.3683   1.8529   1.8529   2.2686   2.2686
     2.5747   2.5747   3.6835   3.6835   3.9562   3.9562   4.9508   4.9508
     5.2918   5.2918   6.0543   6.0543   6.3243   6.3243   6.3369   6.3369
     7.1970   7.1970   7.4327   7.4327

          k = 0.2167 0.0000 0.0000 ( 20085 PWs)   bands (ev):

   -24.6209 -24.6209 -24.5272 -24.5272 -24.4782 -24.4782 -24.4580 -24.4580
   -23.6513 -23.6513 -23.5051 -23.5051 -23.4622 -23.4622 -23.4024 -23.4024
   -23.3392 -23.3392 -23.3071 -23.3071 -11.8829 -11.8829  -6.1080  -6.1080
    -4.0370  -4.0370  -3.9201  -3.9201  -1.3342  -1.3342   0.6194   0.6194
     1.2425   1.2425   1.3773   1.3773   2.0439   2.0439   2.3147   2.3147
     2.6223   2.6223   3.7201   3.7201   4.0041   4.0041   4.8207   4.8207
     5.4794   5.4794   6.1001   6.1001   6.3652   6.3652   6.3757   6.3757
     7.2245   7.2245   7.2599   7.2599

          k = 0.2333 0.0000 0.0000 ( 20083 PWs)   bands (ev):

   -24.6216 -24.6216 -24.5298 -24.5298 -24.4787 -24.4787 -24.4584 -24.4584
   -23.6517 -23.6517 -23.5075 -23.5075 -23.4577 -23.4577 -23.4035 -23.4035
   -23.3380 -23.3380 -23.3031 -23.3031 -11.8358 -11.8358  -6.2921  -6.2921
    -4.0850  -4.0850  -3.9093  -3.9093  -1.2157  -1.2157   0.6372   0.6372
     1.1163   1.1163   1.4280   1.4280   2.2454   2.2454   2.3700   2.3700
     2.6736   2.6736   3.7561   3.7561   4.0555   4.0555   4.6962   4.6962
     5.6715   5.6715   6.1503   6.1503   6.4040   6.4040   6.4215   6.4215
     7.0849   7.0849   7.2624   7.2624

          k = 0.2500 0.0000 0.0000 ( 20099 PWs)   bands (ev):

   -24.6222 -24.6222 -24.5327 -24.5327 -24.4792 -24.4792 -24.4587 -24.4587
   -23.6520 -23.6520 -23.5101 -23.5101 -23.4535 -23.4535 -23.4043 -23.4043
   -23.3366 -23.3366 -23.2992 -23.2992 -11.7854 -11.7854  -6.4731  -6.4731
    -4.1630  -4.1630  -3.8680  -3.8680  -1.1017  -1.1017   0.6568   0.6568
     0.9911   0.9911   1.4823   1.4823   2.3888   2.3888   2.4996   2.4996
     2.7288   2.7288   3.7887   3.7887   4.1102   4.1102   4.5812   4.5812
     5.8645   5.8645   6.2051   6.2051   6.4427   6.4427   6.4715   6.4715
     6.9175   6.9175   7.3001   7.3001

          k = 0.2667 0.0000 0.0000 ( 20111 PWs)   bands (ev):

   -24.6228 -24.6228 -24.5359 -24.5359 -24.4798 -24.4798 -24.4588 -24.4588
   -23.6521 -23.6521 -23.5129 -23.5129 -23.4495 -23.4495 -23.4049 -23.4049
   -23.3350 -23.3350 -23.2955 -23.2955 -11.7317 -11.7317  -6.6510  -6.6510
    -4.2494  -4.2494  -3.8174  -3.8174  -0.9915  -0.9915   0.6691   0.6691
     0.8774   0.8774   1.5400   1.5400   2.4519   2.4519   2.7233   2.7233
     2.7879   2.7879   3.8133   3.8133   4.1684   4.1684   4.4812   4.4812
     6.0526   6.0526   6.2657   6.2657   6.4811   6.4811   6.5233   6.5233
     6.7541   6.7541   7.3048   7.3048

          k = 0.2833 0.0000 0.0000 ( 20127 PWs)   bands (ev):

   -24.6234 -24.6234 -24.5392 -24.5392 -24.4805 -24.4805 -24.4588 -24.4588
   -23.6521 -23.6521 -23.5159 -23.5159 -23.4457 -23.4457 -23.4053 -23.4053
   -23.3331 -23.3331 -23.2918 -23.2918 -11.6748 -11.6748  -6.8256  -6.8256
    -4.3393  -4.3393  -3.7617  -3.7617  -0.8844  -0.8844   0.6371   0.6371
     0.8133   0.8133   1.6010   1.6010   2.5086   2.5086   2.8499   2.8499
     2.9661   2.9661   3.8225   3.8225   4.2301   4.2301   4.4047   4.4047
     6.2218   6.2218   6.3374   6.3374   6.5173   6.5173   6.5735   6.5735
     6.5962   6.5962   7.1836   7.1836

          k = 0.3000 0.0000 0.0000 ( 20141 PWs)   bands (ev):

   -24.6239 -24.6239 -24.5426 -24.5426 -24.4811 -24.4811 -24.4586 -24.4586
   -23.6520 -23.6520 -23.5190 -23.5190 -23.4422 -23.4422 -23.4054 -23.4054
   -23.3311 -23.3311 -23.2883 -23.2883 -11.6147 -11.6147  -6.9968  -6.9968
    -4.4312  -4.4312  -3.7021  -3.7021  -0.7798  -0.7798   0.5383   0.5383
     0.8218   0.8218   1.6654   1.6654   2.5654   2.5654   2.9164   2.9164
     3.2183   3.2183   3.8080   3.8080   4.2953   4.2953   4.3610   4.3610
     6.3391   6.3391   6.4291   6.4291   6.4445   6.4445   6.5543   6.5543
     6.6165   6.6165   7.1036   7.1036

          k = 0.3167 0.0000 0.0000 ( 20119 PWs)   bands (ev):

   -24.6243 -24.6243 -24.5461 -24.5461 -24.4817 -24.4817 -24.4583 -24.4583
   -23.6516 -23.6516 -23.5221 -23.5221 -23.4391 -23.4391 -23.4053 -23.4053
   -23.3290 -23.3290 -23.2848 -23.2848 -11.5515 -11.5515  -7.1645  -7.1645
    -4.5240  -4.5240  -3.6391  -3.6391  -0.6773  -0.6773   0.4168   0.4168
     0.8594   0.8594   1.7332   1.7332   2.6221   2.6221   2.9865   2.9865
     3.4778   3.4778   3.7679   3.7679   4.3539   4.3539   4.3640   4.3640
     6.2822   6.2822   6.4205   6.4205   6.5018   6.5018   6.5808   6.5808
     6.6631   6.6631   7.0966   7.0966

          k = 0.3333 0.0000 0.0000 ( 20113 PWs)   bands (ev):

   -24.6246 -24.6246 -24.5498 -24.5498 -24.4823 -24.4823 -24.4579 -24.4579
   -23.6511 -23.6511 -23.5253 -23.5253 -23.4363 -23.4363 -23.4050 -23.4050
   -23.3266 -23.3266 -23.2814 -23.2814 -11.4852 -11.4852  -7.3287  -7.3287
    -4.6171  -4.6171  -3.5729  -3.5729  -0.5769  -0.5769   0.2915   0.2915
     0.9084   0.9084   1.8043   1.8043   2.6773   2.6773   3.0604   3.0604
     3.6960   3.6960   3.7565   3.7565   4.3780   4.3780   4.4360   4.4360
     6.1379   6.1379   6.4235   6.4235   6.5269   6.5269   6.5998   6.5998
     6.7385   6.7385   7.1637   7.1637

          k = 0.3500 0.0000 0.0000 ( 20101 PWs)   bands (ev):

   -24.6249 -24.6249 -24.5535 -24.5535 -24.4829 -24.4829 -24.4574 -24.4574
   -23.6504 -23.6504 -23.5286 -23.5286 -23.4339 -23.4339 -23.4045 -23.4045
   -23.3242 -23.3242 -23.2780 -23.2780 -11.4161 -11.4161  -7.4891  -7.4891
    -4.7100  -4.7100  -3.5039  -3.5039  -0.4797  -0.4797   0.1681   0.1681
     0.9645   0.9645   1.8788   1.8788   2.7288   2.7288   3.1380   3.1380
     3.6380   3.6380   4.0185   4.0185   4.4241   4.4241   4.5115   4.5115
     5.9975   5.9975   6.3341   6.3341   6.5890   6.5890   6.6045   6.6045
     6.8186   6.8186   7.2509   7.2509

          k = 0.3667 0.0000 0.0000 ( 20107 PWs)   bands (ev):

   -24.6252 -24.6252 -24.5572 -24.5572 -24.4835 -24.4835 -24.4569 -24.4569
   -23.6496 -23.6496 -23.5320 -23.5320 -23.4320 -23.4320 -23.4039 -23.4039
   -23.3217 -23.3217 -23.2749 -23.2749 -11.3440 -11.3440  -7.6458  -7.6458
    -4.8020  -4.8020  -3.4320  -3.4320  -0.3895  -0.3895   0.0525   0.0525
     1.0263   1.0263   1.9566   1.9566   2.7726   2.7726   3.2193   3.2193
     3.5763   3.5763   4.2895   4.2895   4.4861   4.4861   4.5903   4.5903
     5.8637   5.8637   6.2176   6.2176   6.5853   6.5853   6.6612   6.6612
     6.8940   6.8940   7.2643   7.2643

          k = 0.3833 0.0000 0.0000 ( 20125 PWs)   bands (ev):

   -24.6255 -24.6255 -24.5610 -24.5610 -24.4840 -24.4840 -24.4563 -24.4563
   -23.6488 -23.6488 -23.5354 -23.5354 -23.4304 -23.4304 -23.4032 -23.4032
   -23.3192 -23.3192 -23.2718 -23.2718 -11.2692 -11.2692  -7.7988  -7.7988
    -4.8928  -4.8928  -3.3576  -3.3576  -0.3229  -0.3229  -0.0376  -0.0376
     1.0932   1.0932   2.0376   2.0376   2.8033   2.8033   3.3044   3.3044
     3.5286   3.5286   4.5295   4.5295   4.5872   4.5872   4.6727   4.6727
     5.7401   5.7401   6.0927   6.0927   6.5439   6.5439   6.7289   6.7289
     6.9627   6.9627   7.1642   7.1643

          k = 0.4000 0.0000 0.0000 ( 20121 PWs)   bands (ev):

   -24.6256 -24.6256 -24.5647 -24.5647 -24.4844 -24.4844 -24.4557 -24.4557
   -23.6477 -23.6477 -23.5388 -23.5388 -23.4292 -23.4292 -23.4023 -23.4023
   -23.3167 -23.3167 -23.2687 -23.2687 -11.1918 -11.1918  -7.9478  -7.9478
    -4.9818  -4.9818  -3.2807  -3.2807  -0.3293  -0.3293  -0.0519  -0.0519
     1.1647   1.1647   2.1218   2.1218   2.8145   2.8145   3.3931   3.3931
     3.5042   3.5042   4.6257   4.6257   4.7558   4.7558   4.8292   4.8292
     5.6361   5.6361   5.9654   5.9654   6.4802   6.4802   6.7793   6.7793
     7.0107   7.0107   7.0331   7.0331

          k = 0.4167 0.0000 0.0000 ( 20119 PWs)   bands (ev):

   -24.6257 -24.6257 -24.5683 -24.5683 -24.4849 -24.4849 -24.4551 -24.4551
   -23.6465 -23.6465 -23.5422 -23.5422 -23.4282 -23.4282 -23.4014 -23.4014
   -23.3143 -23.3143 -23.2658 -23.2658 -11.1119 -11.1119  -8.0930  -8.0930
    -5.0686  -5.0686  -3.2016  -3.2016  -0.4122  -0.4122   0.0136   0.0136
     1.2403   1.2403   2.2092   2.2092   2.8024   2.8024   3.4856   3.4856
     3.5087   3.5087   4.7111   4.7111   4.8442   4.8442   5.0377   5.0377
     5.5845   5.5845   5.8390   5.8390   6.3996   6.3996   6.7739   6.7739
     6.8961   6.8961   6.9104   6.9104

          k = 0.4333 0.0000 0.0000 ( 20121 PWs)   bands (ev):

   -24.6257 -24.6257 -24.5718 -24.5718 -24.4853 -24.4853 -24.4545 -24.4545
   -23.6452 -23.6452 -23.5455 -23.5455 -23.4275 -23.4275 -23.4005 -23.4005
   -23.3120 -23.3120 -23.2629 -23.2629 -11.0297 -11.0297  -8.2342  -8.2342
    -5.1529  -5.1529  -3.1204  -3.1204  -0.5199  -0.5199   0.1077   0.1077
     1.3197   1.3197   2.2997   2.2997   2.7689   2.7689   3.5413   3.5413
     3.5818   3.5818   4.8005   4.8005   4.9341   4.9341   5.1179   5.1179
     5.6447   5.6447   5.7349   5.7349   6.3085   6.3085   6.6990   6.6990
     6.7654   6.7654   6.7770   6.7770

          k = 0.4500 0.0000 0.0000 ( 20137 PWs)   bands (ev):

   -24.6258 -24.6258 -24.5752 -24.5752 -24.4857 -24.4857 -24.4540 -24.4540
   -23.6439 -23.6439 -23.5489 -23.5489 -23.4271 -23.4271 -23.3995 -23.3995
   -23.3098 -23.3098 -23.2602 -23.2602 -10.9454 -10.9454  -8.3714  -8.3714
    -5.2343  -5.2343  -3.0372  -3.0372  -0.6331  -0.6331   0.2116   0.2116
     1.4024   1.4024   2.3930   2.3930   2.7198   2.7198   3.5968   3.5968
     3.6815   3.6815   4.8940   4.8940   5.0253   5.0253   5.0726   5.0726
     5.5699   5.5699   5.8900   5.8900   6.2149   6.2149   6.5949   6.5949
     6.6325   6.6325   6.6472   6.6472

          k = 0.4667 0.0000 0.0000 ( 20129 PWs)   bands (ev):

   -24.6257 -24.6257 -24.5784 -24.5784 -24.4860 -24.4860 -24.4533 -24.4533
   -23.6424 -23.6424 -23.5521 -23.5521 -23.4269 -23.4269 -23.3985 -23.3985
   -23.3079 -23.3079 -23.2575 -23.2575 -10.8591 -10.8591  -8.5046  -8.5046
    -5.3122  -5.3122  -2.9524  -2.9524  -0.7470  -0.7470   0.3208   0.3208
     1.4879   1.4879   2.4887   2.4887   2.6619   2.6619   3.6694   3.6694
     3.7849   3.7849   4.9823   4.9823   4.9919   4.9919   5.1153   5.1153
     5.4455   5.4455   6.0602   6.0602   6.1897   6.1897   6.4699   6.4699
     6.4999   6.4999   6.5326   6.5326

          k = 0.4833 0.0000 0.0000 ( 20145 PWs)   bands (ev):

   -24.6256 -24.6256 -24.5814 -24.5814 -24.4863 -24.4863 -24.4528 -24.4528
   -23.6409 -23.6409 -23.5553 -23.5553 -23.4268 -23.4268 -23.3975 -23.3975
   -23.3061 -23.3061 -23.2549 -23.2549 -10.7711 -10.7711  -8.6338  -8.6338
    -5.3864  -5.3864  -2.8662  -2.8662  -0.8596  -0.8596   0.4335   0.4335
     1.5756   1.5756   2.5779   2.5779   2.6092   2.6092   3.7544   3.7544
     3.8918   3.8918   4.8817   4.8817   5.0904   5.0904   5.1927   5.1927
     5.3274   5.3274   5.9872   5.9872   6.2727   6.2727   6.3539   6.3539
     6.3871   6.3871   6.5049   6.5049

          k = 0.5000 0.0000 0.0000 ( 20149 PWs)   bands (ev):

   -24.6254 -24.6254 -24.5842 -24.5842 -24.4866 -24.4866 -24.4523 -24.4523
   -23.6393 -23.6393 -23.5583 -23.5583 -23.4269 -23.4269 -23.3965 -23.3965
   -23.3046 -23.3046 -23.2525 -23.2525 -10.6816 -10.6816  -8.7589  -8.7589
    -5.4565  -5.4565  -2.7788  -2.7788  -0.9703  -0.9703   0.5494   0.5494
     1.6646   1.6646   2.5333   2.5333   2.6920   2.6920   3.8486   3.8486
     4.0022   4.0022   4.7777   4.7777   5.1403   5.1403   5.2018   5.2018
     5.3154   5.3154   5.8873   5.8873   6.1052   6.1052   6.2644   6.2644
     6.2815   6.2815   6.4003   6.4003

          k = 0.5167 0.0000 0.0000 ( 20159 PWs)   bands (ev):

   -24.6253 -24.6253 -24.5868 -24.5868 -24.4869 -24.4869 -24.4518 -24.4518
   -23.6377 -23.6377 -23.5613 -23.5613 -23.4270 -23.4270 -23.3957 -23.3957
   -23.3033 -23.3033 -23.2502 -23.2502 -10.5910 -10.5910  -8.8799  -8.8799
    -5.5220  -5.5220  -2.6905  -2.6905  -1.0786  -1.0786   0.6681   0.6681
     1.7540   1.7540   2.4723   2.4723   2.7949   2.7949   3.9502   3.9502
     4.1158   4.1158   4.6743   4.6743   5.0051   5.0051   5.2982   5.2982
     5.3705   5.3705   5.7860   5.7860   5.9436   5.9436   6.1578   6.1578
     6.1817   6.1817   6.2803   6.2803

          k = 0.5333 0.0000 0.0000 ( 20151 PWs)   bands (ev):

   -24.6252 -24.6252 -24.5892 -24.5892 -24.4871 -24.4871 -24.4513 -24.4513
   -23.6361 -23.6361 -23.5640 -23.5640 -23.4272 -23.4272 -23.3948 -23.3948
   -23.3022 -23.3022 -23.2480 -23.2480 -10.4995 -10.4995  -8.9968  -8.9968
    -5.5825  -5.5825  -2.6016  -2.6016  -1.1842  -1.1842   0.7895   0.7895
     1.8423   1.8423   2.4141   2.4141   2.9001   2.9001   4.0577   4.0577
     4.2321   4.2321   4.5730   4.5730   4.8434   4.8434   5.3596   5.3596
     5.4189   5.4189   5.6860   5.6860   5.8463   5.8463   6.0518   6.0518
     6.0901   6.0901   6.1738   6.1738

          k = 0.5500 0.0000 0.0000 ( 20149 PWs)   bands (ev):

   -24.6251 -24.6251 -24.5912 -24.5912 -24.4872 -24.4872 -24.4508 -24.4508
   -23.6346 -23.6346 -23.5665 -23.5665 -23.4274 -23.4274 -23.3940 -23.3940
   -23.3013 -23.3013 -23.2461 -23.2461 -10.4075 -10.4075  -9.1095  -9.1095
    -5.6376  -5.6376  -2.5125  -2.5125  -1.2869  -1.2869   0.9134   0.9134
     1.9275   1.9275   2.3600   2.3600   3.0064   3.0064   4.1697   4.1697
     4.3501   4.3501   4.4744   4.4744   4.6649   4.6649   5.3050   5.3050
     5.5083   5.5083   5.5881   5.5881   5.8347   5.8347   5.9485   5.9485
     6.0121   6.0121   6.0866   6.0866

          k = 0.5667 0.0000 0.0000 ( 20149 PWs)   bands (ev):

   -24.6249 -24.6249 -24.5929 -24.5929 -24.4874 -24.4874 -24.4504 -24.4504
   -23.6331 -23.6331 -23.5689 -23.5689 -23.4277 -23.4277 -23.3933 -23.3933
   -23.3006 -23.3006 -23.2444 -23.2444 -10.3154 -10.3154  -9.2181  -9.2181
    -5.6868  -5.6868  -2.4235  -2.4235  -1.3865  -1.3865   1.0396   1.0396
     2.0064   2.0064   2.3113   2.3113   3.1128   3.1128   4.2835   4.2835
     4.3789   4.3789   4.4413   4.4413   4.5041   4.5041   5.2123   5.2123
     5.4926   5.4926   5.5841   5.5841   5.8428   5.8428   5.8485   5.8485
     5.9617   5.9617   6.0500   6.0500

          k = 0.5833 0.0000 0.0000 ( 20137 PWs)   bands (ev):

   -24.6248 -24.6248 -24.5943 -24.5943 -24.4875 -24.4875 -24.4501 -24.4501
   -23.6317 -23.6317 -23.5709 -23.5709 -23.4279 -23.4279 -23.3927 -23.3927
   -23.3000 -23.3000 -23.2429 -23.2429 -10.2236 -10.2236  -9.3225  -9.3225
    -5.7298  -5.7298  -2.3351  -2.3351  -1.4830  -1.4830   1.1678   1.1678
     2.0745   2.0745   2.2689   2.2689   3.2177   3.2177   4.2587   4.2587
     4.2875   4.2875   4.4149   4.4149   4.5981   4.5981   5.1234   5.1234
     5.4000   5.4000   5.6134   5.6134   5.7522   5.7522   5.7972   5.7972
     5.9658   5.9658   6.1009   6.1009

          k = 0.6000 0.0000 0.0000 ( 20127 PWs)   bands (ev):

   -24.6248 -24.6248 -24.5954 -24.5954 -24.4876 -24.4876 -24.4498 -24.4498
   -23.6305 -23.6305 -23.5726 -23.5726 -23.4282 -23.4282 -23.3922 -23.3922
   -23.2996 -23.2996 -23.2416 -23.2416 -10.1326 -10.1326  -9.4227  -9.4227
    -5.7660  -5.7660  -2.2475  -2.2475  -1.5762  -1.5762   1.2973   1.2973
     2.1250   2.1250   2.2337   2.2337   3.3177   3.3177   4.0788   4.0788
     4.1984   4.1984   4.5340   4.5340   4.7094   4.7094   5.0576   5.0576
     5.3105   5.3105   5.5888   5.5888   5.6595   5.6595   5.7227   5.7227
     6.0314   6.0314   6.1990   6.1990

          k = 0.6167 0.0000 0.0000 ( 20141 PWs)   bands (ev):

   -24.6248 -24.6248 -24.5963 -24.5963 -24.4877 -24.4877 -24.4495 -24.4495
   -23.6296 -23.6296 -23.5740 -23.5740 -23.4284 -23.4284 -23.3919 -23.3919
   -23.2994 -23.2994 -23.2406 -23.2406 -10.0430 -10.0430  -9.5186  -9.5186
    -5.7949  -5.7949  -2.1614  -2.1614  -1.6661  -1.6661   1.4267   1.4267
     2.1488   2.1488   2.2071   2.2071   3.4057   3.4057   3.9261   3.9261
     4.1133   4.1133   4.6570   4.6570   4.7905   4.7905   5.0412   5.0412
     5.2242   5.2242   5.5382   5.5382   5.5706   5.5706   5.6438   5.6438
     6.1302   6.1302   6.3138   6.3138

          k = 0.6333 0.0000 0.0000 ( 20139 PWs)   bands (ev):

   -24.6248 -24.6248 -24.5969 -24.5969 -24.4878 -24.4878 -24.4494 -24.4494
   -23.6289 -23.6289 -23.5750 -23.5750 -23.4286 -23.4286 -23.3916 -23.3916
   -23.2992 -23.2992 -23.2399 -23.2399  -9.9555  -9.9555  -9.6099  -9.6099
    -5.8162  -5.8162  -2.0771  -2.0771  -1.7525  -1.7525   1.5525   1.5525
     2.1403   2.1403   2.1870   2.1870   3.4657   3.4657   3.8337   3.8337
     4.0321   4.0321   4.7774   4.7774   4.8120   4.8120   5.1047   5.1047
     5.1413   5.1413   5.4834   5.4834   5.4854   5.4854   5.5674   5.5674
     6.2402   6.2402   6.4346   6.4346

          k = 0.6500 0.0000 0.0000 ( 20133 PWs)   bands (ev):

   -24.6248 -24.6248 -24.5972 -24.5972 -24.4878 -24.4878 -24.4493 -24.4493
   -23.6284 -23.6284 -23.5757 -23.5757 -23.4287 -23.4287 -23.3914 -23.3914
   -23.2991 -23.2991 -23.2394 -23.2394  -9.8717  -9.8717  -9.6956  -9.6956
    -5.8293  -5.8293  -1.9954  -1.9954  -1.8352  -1.8352   1.6635   1.6635
     2.1038   2.1038   2.1708   2.1708   3.4828   3.4828   3.8265   3.8265
     3.9547   3.9547   4.7992   4.7992   4.8937   4.8937   5.0617   5.0617
     5.2168   5.2168   5.4039   5.4039   5.4378   5.4378   5.4982   5.4982
     6.3479   6.3479   6.5115   6.5115

          k = 0.6667 0.0000 0.0000 ( 20133 PWs)   bands (ev):

   -24.6248 -24.6248 -24.5972 -24.5972 -24.4878 -24.4878 -24.4493 -24.4493
   -23.6282 -23.6282 -23.5759 -23.5759 -23.4287 -23.4287 -23.3913 -23.3913
   -23.2991 -23.2991 -23.2393 -23.2393  -9.8118  -9.8118  -9.7560  -9.7560
    -5.8337  -5.8337  -1.9260  -1.9260  -1.9049  -1.9049   1.7187   1.7187
     2.0725   2.0725   2.1650   2.1650   3.4806   3.4806   3.8806   3.8806
     3.8819   3.8819   4.7928   4.7928   4.9848   4.9848   4.9866   4.9866
     5.3263   5.3263   5.3263   5.3263   5.4175   5.4175   5.4562   5.4562
     6.4358   6.4358   6.4386   6.4386

          k = 0.6583 0.0144 0.0000 ( 20121 PWs)   bands (ev):

   -24.6248 -24.6248 -24.5972 -24.5972 -24.4878 -24.4878 -24.4492 -24.4492
   -23.6284 -23.6284 -23.5756 -23.5756 -23.4286 -23.4286 -23.3914 -23.3914
   -23.2991 -23.2991 -23.2394 -23.2394  -9.8683  -9.8683  -9.6992  -9.6992
    -5.8291  -5.8291  -1.9921  -1.9921  -1.8386  -1.8386   1.6506   1.6506
     2.1190   2.1190   2.1723   2.1723   3.4871   3.4871   3.8120   3.8120
     3.9606   3.9606   4.8011   4.8011   4.9135   4.9135   5.0346   5.0346
     5.2524   5.2524   5.3314   5.3314   5.4451   5.4451   5.5342   5.5342
     6.3659   6.3659   6.4867   6.4867

          k = 0.6500 0.0289 0.0000 ( 20129 PWs)   bands (ev):

   -24.6248 -24.6248 -24.5969 -24.5969 -24.4878 -24.4878 -24.4493 -24.4493
   -23.6288 -23.6288 -23.5751 -23.5751 -23.4285 -23.4285 -23.3916 -23.3916
   -23.2991 -23.2991 -23.2398 -23.2398  -9.9415  -9.9415  -9.6252  -9.6252
    -5.8152  -5.8152  -2.0641  -2.0641  -1.7666  -1.7666   1.4889   1.4889
     2.1760   2.1760   2.2427   2.2427   3.5044   3.5044   3.7472   3.7472
     4.0490   4.0490   4.8240   4.8240   4.8474   4.8474   5.0342   5.0342
     5.1823   5.1823   5.2878   5.2878   5.5261   5.5261   5.6761   5.6761
     6.2980   6.2980   6.4909   6.4909

          k = 0.6417 0.0433 0.0000 ( 20131 PWs)   bands (ev):

   -24.6246 -24.6246 -24.5966 -24.5966 -24.4877 -24.4877 -24.4495 -24.4495
   -23.6295 -23.6295 -23.5742 -23.5742 -23.4282 -23.4282 -23.3919 -23.3919
   -23.2992 -23.2992 -23.2406 -23.2406 -10.0121 -10.0121  -9.5540  -9.5540
    -5.7916  -5.7916  -2.1327  -2.1327  -1.6983  -1.6983   1.2857   1.2857
     2.2027   2.2027   2.3759   2.3759   3.5249   3.5249   3.6872   3.6872
     4.1432   4.1432   4.7781   4.7781   4.8666   4.8666   5.0044   5.0044
     5.1160   5.1160   5.2520   5.2520   5.6392   5.6392   5.8294   5.8294
     6.2335   6.2335   6.4432   6.4432

          k = 0.6333 0.0577 0.0000 ( 20139 PWs)   bands (ev):

   -24.6245 -24.6245 -24.5961 -24.5961 -24.4876 -24.4876 -24.4498 -24.4498
   -23.6304 -23.6304 -23.5731 -23.5731 -23.4279 -23.4279 -23.3923 -23.3923
   -23.2992 -23.2992 -23.2415 -23.2415 -10.0790 -10.0790  -9.4870  -9.4870
    -5.7583  -5.7583  -2.1976  -2.1976  -1.6344  -1.6344   1.0629   1.0629
     2.2373   2.2373   2.5198   2.5198   3.5413   3.5413   3.6328   3.6328
     4.2440   4.2440   4.7171   4.7171   4.9047   4.9047   4.9627   4.9627
     5.0535   5.0535   5.2404   5.2404   5.7631   5.7631   5.9878   5.9878
     6.1725   6.1725   6.3815   6.3815

          k = 0.6250 0.0722 0.0000 ( 20123 PWs)   bands (ev):

   -24.6243 -24.6243 -24.5955 -24.5955 -24.4875 -24.4875 -24.4501 -24.4501
   -23.6313 -23.6313 -23.5717 -23.5717 -23.4275 -23.4275 -23.3927 -23.3927
   -23.2991 -23.2991 -23.2427 -23.2427 -10.1418 -10.1418  -9.4248  -9.4248
    -5.7152  -5.7152  -2.2589  -2.2589  -1.5751  -1.5751   0.8303   0.8303
     2.2818   2.2818   2.6673   2.6673   3.5485   3.5485   3.5867   3.5867
     4.3520   4.3520   4.6600   4.6600   4.9169   4.9169   4.9257   4.9257
     4.9949   4.9949   5.2694   5.2694   5.8816   5.8816   6.1151   6.1151
     6.1478   6.1478   6.3233   6.3233

          k = 0.6167 0.0866 0.0000 ( 20131 PWs)   bands (ev):

   -24.6240 -24.6240 -24.5949 -24.5949 -24.4873 -24.4873 -24.4505 -24.4505
   -23.6324 -23.6324 -23.5702 -23.5702 -23.4270 -23.4270 -23.3932 -23.3932
   -23.2990 -23.2990 -23.2442 -23.2442 -10.2007 -10.2007  -9.3677  -9.3677
    -5.6625  -5.6625  -2.3164  -2.3164  -1.5206  -1.5206   0.5936   0.5936
     2.3362   2.3362   2.8140   2.8140   3.5344   3.5344   3.5625   3.5625
     4.4644   4.4644   4.6085   4.6085   4.8715   4.8715   4.9237   4.9237
     4.9400   4.9400   5.3415   5.3415   5.9742   5.9742   6.0613   6.0613
     6.2688   6.2688   6.3000   6.3000

          k = 0.6083 0.1010 0.0000 ( 20139 PWs)   bands (ev):

   -24.6237 -24.6237 -24.5943 -24.5943 -24.4872 -24.4872 -24.4509 -24.4509
   -23.6336 -23.6336 -23.5686 -23.5686 -23.4264 -23.4264 -23.3938 -23.3938
   -23.2989 -23.2989 -23.2458 -23.2458 -10.2554 -10.2554  -9.3158  -9.3158
    -5.6005  -5.6005  -2.3701  -2.3701  -1.4711  -1.4711   0.3565   0.3565
     2.4007   2.4007   2.9539   2.9539   3.5092   3.5092   3.5565   3.5565
     4.5379   4.5379   4.6001   4.6001   4.8274   4.8274   4.8890   4.8890
     4.9142   4.9142   5.4432   5.4432   6.0106   6.0106   6.0194   6.0194
     6.2179   6.2179   6.3964   6.3964

          k = 0.6000 0.1155 0.0000 ( 20161 PWs)   bands (ev):

   -24.6234 -24.6234 -24.5936 -24.5936 -24.4870 -24.4870 -24.4515 -24.4515
   -23.6348 -23.6348 -23.5670 -23.5670 -23.4258 -23.4258 -23.3945 -23.3945
   -23.2987 -23.2987 -23.2476 -23.2476 -10.3061 -10.3061  -9.2690  -9.2690
    -5.5298  -5.5298  -2.4201  -2.4201  -1.4266  -1.4266   0.1216   0.1216
     2.4748   2.4748   3.0750   3.0750   3.4981   3.4981   3.5569   3.5569
     4.5023   4.5023   4.6863   4.6863   4.7857   4.7857   4.8419   4.8419
     4.9237   4.9237   5.5606   5.5606   5.9644   5.9644   6.0162   6.0162
     6.1706   6.1706   6.4080   6.4080

          k = 0.5917 0.1299 0.0000 ( 20163 PWs)   bands (ev):

   -24.6230 -24.6230 -24.5930 -24.5930 -24.4868 -24.4868 -24.4520 -24.4520
   -23.6360 -23.6360 -23.5653 -23.5653 -23.4250 -23.4250 -23.3952 -23.3952
   -23.2984 -23.2984 -23.2496 -23.2496 -10.3527 -10.3527  -9.2275  -9.2275
    -5.4513  -5.4513  -2.4663  -2.4663  -1.3871  -1.3871  -0.1089  -0.1089
     2.5582   2.5582   3.1569   3.1569   3.4969   3.4969   3.5896   3.5896
     4.4609   4.4609   4.7288   4.7288   4.7473   4.7473   4.7987   4.7987
     4.9902   4.9902   5.6838   5.6838   5.9217   5.9217   5.9823   5.9823
     6.1268   6.1268   6.4062   6.4062

          k = 0.5833 0.1443 0.0000 ( 20135 PWs)   bands (ev):

   -24.6225 -24.6225 -24.5923 -24.5923 -24.4866 -24.4866 -24.4526 -24.4526
   -23.6371 -23.6371 -23.5637 -23.5637 -23.4241 -23.4241 -23.3958 -23.3958
   -23.2980 -23.2980 -23.2516 -23.2516 -10.3953 -10.3953  -9.1909  -9.1909
    -5.3660  -5.3660  -2.5086  -2.5086  -1.3525  -1.3525  -0.3330  -0.3330
     2.6502   2.6502   3.1906   3.1906   3.4879   3.4879   3.6826   3.6826
     4.4223   4.4223   4.7111   4.7111   4.7267   4.7267   4.7594   4.7594
     5.1075   5.1075   5.8036   5.8036   5.8828   5.8828   5.9284   5.9284
     6.0866   6.0866   6.4176   6.4176

          k = 0.5750 0.1588 0.0000 ( 20127 PWs)   bands (ev):

   -24.6220 -24.6220 -24.5916 -24.5916 -24.4863 -24.4863 -24.4531 -24.4531
   -23.6382 -23.6382 -23.5621 -23.5621 -23.4232 -23.4232 -23.3966 -23.3966
   -23.2975 -23.2975 -23.2538 -23.2538 -10.4337 -10.4337  -9.1591  -9.1591
    -5.2752  -5.2752  -2.5472  -2.5472  -1.3230  -1.3230  -0.5485  -0.5485
     2.7500   2.7500   3.1928   3.1928   3.4735   3.4735   3.8174   3.8174
     4.3876   4.3876   4.6797   4.6797   4.7076   4.7076   4.7243   4.7243
     5.2433   5.2433   5.8467   5.8467   5.8538   5.8538   5.9144   5.9144
     6.0497   6.0497   6.4548   6.4548

          k = 0.5667 0.1732 0.0000 ( 20141 PWs)   bands (ev):

   -24.6216 -24.6216 -24.5910 -24.5910 -24.4861 -24.4861 -24.4537 -24.4537
   -23.6392 -23.6392 -23.5607 -23.5607 -23.4223 -23.4223 -23.3974 -23.3974
   -23.2970 -23.2970 -23.2560 -23.2560 -10.4681 -10.4681  -9.1318  -9.1318
    -5.1807  -5.1807  -2.5819  -2.5819  -1.2988  -1.2988  -0.7530  -0.7530
     2.8563   2.8563   3.1817   3.1817   3.4577   3.4577   3.9719   3.9719
     4.3573   4.3573   4.6520   4.6520   4.6845   4.6845   4.6940   4.6940
     5.3812   5.3812   5.7626   5.7626   5.8163   5.8163   6.0009   6.0009
     6.0160   6.0160   6.5098   6.5098

          k = 0.5583 0.1876 0.0000 ( 20151 PWs)   bands (ev):

   -24.6212 -24.6212 -24.5905 -24.5905 -24.4859 -24.4859 -24.4543 -24.4543
   -23.6402 -23.6402 -23.5593 -23.5593 -23.4214 -23.4214 -23.3982 -23.3982
   -23.2964 -23.2964 -23.2582 -23.2582 -10.4985 -10.4985  -9.1086  -9.1086
    -5.0846  -5.0846  -2.6129  -2.6129  -1.2816  -1.2816  -0.9422  -0.9422
     2.9673   2.9673   3.1667   3.1667   3.4420   3.4420   4.1328   4.1328
     4.3338   4.3338   4.6288   4.6288   4.6610   4.6610   4.6692   4.6692
     5.5094   5.5094   5.6513   5.6513   5.7897   5.7897   5.9851   5.9851
     6.0722   6.0722   6.3943   6.3943

          k = 0.5500 0.2021 0.0000 ( 20163 PWs)   bands (ev):

   -24.6208 -24.6208 -24.5900 -24.5900 -24.4857 -24.4857 -24.4549 -24.4549
   -23.6410 -23.6410 -23.5581 -23.5581 -23.4206 -23.4206 -23.3990 -23.3990
   -23.2958 -23.2958 -23.2603 -23.2603 -10.5247 -10.5247  -9.0893  -9.0893
    -4.9895  -4.9895  -2.6400  -2.6400  -1.2805  -1.2805  -1.1044  -1.1044
     3.0779   3.0779   3.1547   3.1547   3.4274   3.4274   4.2623   4.2623
     4.3486   4.3486   4.6106   4.6106   4.6395   4.6395   4.6511   4.6511
     5.5123   5.5123   5.6265   5.6265   5.7692   5.7692   5.9566   5.9566
     6.1407   6.1407   6.3060   6.3060

          k = 0.5417 0.2165 0.0000 ( 20154 PWs)   bands (ev):

   -24.6204 -24.6204 -24.5895 -24.5895 -24.4854 -24.4854 -24.4554 -24.4554
   -23.6417 -23.6417 -23.5571 -23.5571 -23.4197 -23.4197 -23.3996 -23.3996
   -23.2951 -23.2951 -23.2623 -23.2623 -10.5470 -10.5470  -9.0735  -9.0735
    -4.8985  -4.8985  -2.6634  -2.6634  -1.3417  -1.3417  -1.1899  -1.1899
     3.1255   3.1255   3.2075   3.2075   3.4145   3.4145   4.2702   4.2702
     4.4783   4.4783   4.5981   4.5981   4.6217   4.6217   4.6495   4.6495
     5.3717   5.3717   5.6937   5.6937   5.7634   5.7634   5.9296   5.9296
     6.2167   6.2167   6.2432   6.2432

          k = 0.5333 0.2309 0.0000 ( 20166 PWs)   bands (ev):

   -24.6201 -24.6201 -24.5891 -24.5891 -24.4852 -24.4852 -24.4559 -24.4559
   -23.6424 -23.6424 -23.5562 -23.5562 -23.4190 -23.4190 -23.4002 -23.4002
   -23.2944 -23.2944 -23.2641 -23.2641 -10.5651 -10.5651  -9.0610  -9.0610
    -4.8152  -4.8152  -2.6828  -2.6828  -1.4596  -1.4596  -1.2007  -1.2007
     3.1164   3.1164   3.3157   3.3157   3.4035   3.4035   4.2572   4.2572
     4.5598   4.5598   4.5923   4.5923   4.6075   4.6075   4.7255   4.7255
     5.2261   5.2261   5.7061   5.7061   5.7849   5.7849   5.9024   5.9024
     6.1934   6.1934   6.2810   6.2810

          k = 0.5250 0.2454 0.0000 ( 20148 PWs)   bands (ev):

   -24.6198 -24.6198 -24.5888 -24.5888 -24.4850 -24.4850 -24.4563 -24.4563
   -23.6428 -23.6428 -23.5555 -23.5555 -23.4183 -23.4183 -23.4007 -23.4007
   -23.2938 -23.2938 -23.2655 -23.2655 -10.5793 -10.5793  -9.0515  -9.0515
    -4.7437  -4.7437  -2.6984  -2.6984  -1.5690  -1.5690  -1.1976  -1.1976
     3.1066   3.1066   3.3943   3.3943   3.4184   3.4184   4.2453   4.2453
     4.5671   4.5671   4.5943   4.5943   4.5974   4.5974   4.8803   4.8803
     5.0868   5.0868   5.6972   5.6972   5.7943   5.7943   5.8765   5.8765
     6.1610   6.1610   6.2062   6.2062

          k = 0.5167 0.2598 0.0000 ( 20148 PWs)   bands (ev):

   -24.6196 -24.6196 -24.5886 -24.5886 -24.4849 -24.4849 -24.4565 -24.4565
   -23.6431 -23.6431 -23.5550 -23.5550 -23.4178 -23.4178 -23.4011 -23.4011
   -23.2933 -23.2933 -23.2667 -23.2667 -10.5894 -10.5894  -9.0449  -9.0449
    -4.6885  -4.6885  -2.7098  -2.7098  -1.6530  -1.6530  -1.1936  -1.1936
     3.0992   3.0992   3.3883   3.3883   3.5034   3.5034   4.2365   4.2365
     4.5629   4.5629   4.5877   4.5877   4.6105   4.6105   4.9509   4.9509
     5.0573   5.0573   5.6817   5.6817   5.7567   5.7567   5.8648   5.8648
     6.1031   6.1031   6.1396   6.1396

          k = 0.5083 0.2742 0.0000 ( 20132 PWs)   bands (ev):

   -24.6195 -24.6195 -24.5885 -24.5885 -24.4848 -24.4848 -24.4567 -24.4567
   -23.6433 -23.6433 -23.5547 -23.5547 -23.4175 -23.4175 -23.4012 -23.4012
   -23.2929 -23.2929 -23.2675 -23.2675 -10.5954 -10.5954  -9.0410  -9.0410
    -4.6534  -4.6534  -2.7167  -2.7167  -1.7056  -1.7056  -1.1908  -1.1908
     3.0947   3.0947   3.3844   3.3844   3.5612   3.5612   4.2311   4.2311
     4.5591   4.5591   4.5828   4.5828   4.6358   4.6358   4.8553   4.8553
     5.2078   5.2078   5.6275   5.6275   5.7103   5.7103   5.8648   5.8648
     6.0442   6.0442   6.1273   6.1273

          k = 0.5000 0.2887 0.0000 ( 20152 PWs)   bands (ev):

   -24.6195 -24.6195 -24.5885 -24.5885 -24.4848 -24.4848 -24.4567 -24.4567
   -23.6434 -23.6434 -23.5546 -23.5546 -23.4174 -23.4174 -23.4013 -23.4013
   -23.2928 -23.2928 -23.2678 -23.2678 -10.5974 -10.5974  -9.0397  -9.0397
    -4.6414  -4.6414  -2.7191  -2.7191  -1.7235  -1.7235  -1.1899  -1.1899
     3.0932   3.0932   3.3831   3.3831   3.5819   3.5819   4.2293   4.2293
     4.5577   4.5577   4.5811   4.5811   4.6537   4.6537   4.8114   4.8114
     5.2900   5.2900   5.5680   5.5680   5.7017   5.7017   5.8655   5.8655
     6.0270   6.0270   6.1233   6.1233

          k = 0.4833 0.2791 0.0000 ( 20140 PWs)   bands (ev):

   -24.6196 -24.6196 -24.5881 -24.5881 -24.4847 -24.4847 -24.4568 -24.4568
   -23.6435 -23.6435 -23.5543 -23.5543 -23.4176 -23.4176 -23.4013 -23.4013
   -23.2931 -23.2931 -23.2677 -23.2677 -10.6095 -10.6095  -9.0229  -9.0229
[...]
     4.1689   4.1689   4.6731   4.6731   4.9175   4.9175   4.9591   4.9591
     5.0748   5.0748   5.2475   5.2475   5.4846   5.4846   5.5236   5.5236
     6.3993   6.3993   6.4547   6.4547

          k = 0.4333 0.2502 0.0000 ( 20169 PWs)   bands (ev):

   -24.6213 -24.6213 -24.5827 -24.5827 -24.4846 -24.4846 -24.4572 -24.4572
   -23.6451 -23.6451 -23.5507 -23.5507 -23.4198 -23.4198 -23.4008 -23.4008
   -23.2984 -23.2984 -23.2683 -23.2683 -10.7648 -10.7648  -8.7961  -8.7961
    -4.6015  -4.6015  -2.8749  -2.8749  -1.7013  -1.7013  -0.9714  -0.9714
     2.6882   2.6882   3.4419   3.4419   3.7668   3.7668   4.0116   4.0116
     4.1505   4.1505   4.6876   4.6876   4.7904   4.7904   4.9433   4.9433
     5.0351   5.0351   5.2695   5.2695   5.3691   5.3691   5.4888   5.4888
     6.5428   6.5428   6.6185   6.6185

          k = 0.4167 0.2406 0.0000 ( 20157 PWs)   bands (ev):

   -24.6220 -24.6220 -24.5797 -24.5797 -24.4844 -24.4844 -24.4574 -24.4574
   -23.6459 -23.6459 -23.5485 -23.5485 -23.4210 -23.4210 -23.4006 -23.4006
   -23.3012 -23.3012 -23.2688 -23.2688 -10.8418 -10.8418  -8.6763  -8.6763
    -4.5793  -4.5793  -2.9478  -2.9478  -1.6880  -1.6880  -0.8648  -0.8648
     2.5678   2.5678   3.3703   3.3703   3.8150   3.8150   3.8860   3.8860
     4.1454   4.1454   4.6341   4.6341   4.7096   4.7096   4.7717   4.7717
     5.0288   5.0288   5.2376   5.2376   5.4337   5.4337   5.5220   5.5220
     6.6919   6.6919   6.7865   6.7865

          k = 0.4000 0.2309 0.0000 ( 20153 PWs)   bands (ev):

   -24.6227 -24.6227 -24.5764 -24.5764 -24.4842 -24.4842 -24.4576 -24.4576
   -23.6467 -23.6467 -23.5461 -23.5461 -23.4224 -23.4224 -23.4005 -23.4005
   -23.3043 -23.3043 -23.2697 -23.2697 -10.9247 -10.9247  -8.5411  -8.5411
    -4.5523  -4.5523  -3.0270  -3.0270  -1.6716  -1.6716  -0.7451  -0.7451
     2.4502   2.4502   3.2897   3.2897   3.7522   3.7522   3.7816   3.7816
     4.1498   4.1498   4.4787   4.4787   4.6561   4.6561   4.7326   4.7326
     4.9861   4.9861   5.1266   5.1266   5.6026   5.6026   5.6195   5.6195
     6.8379   6.8379   6.9590   6.9590

          k = 0.3833 0.2213 0.0000 ( 20169 PWs)   bands (ev):

   -24.6233 -24.6233 -24.5729 -24.5729 -24.4839 -24.4839 -24.4579 -24.4579
   -23.6476 -23.6476 -23.5433 -23.5433 -23.4240 -23.4240 -23.4005 -23.4005
   -23.3078 -23.3078 -23.2708 -23.2708 -11.0109 -11.0109  -8.3933  -8.3933
    -4.5207  -4.5207  -3.1099  -3.1099  -1.6526  -1.6526  -0.6151  -0.6151
     2.3362   2.3362   3.2035   3.2035   3.6293   3.6293   3.6417   3.6417
     4.1535   4.1535   4.2745   4.2745   4.6813   4.6813   4.7607   4.7607
     4.9261   4.9261   5.0215   5.0215   5.7540   5.7540   5.7827   5.7827
     6.9587   6.9587   7.1346   7.1346

          k = 0.3667 0.2117 0.0000 ( 20153 PWs)   bands (ev):

   -24.6238 -24.6238 -24.5690 -24.5690 -24.4836 -24.4836 -24.4581 -24.4581
   -23.6485 -23.6485 -23.5403 -23.5403 -23.4258 -23.4258 -23.4006 -23.4006
   -23.3113 -23.3113 -23.2722 -23.2722 -11.0982 -11.0982  -8.2350  -8.2350
    -4.4845  -4.4845  -3.1945  -3.1945  -1.6313  -1.6313  -0.4769  -0.4769
     2.2259   2.2259   3.1144   3.1144   3.4267   3.4267   3.5257   3.5257
     4.0526   4.0526   4.1550   4.1550   4.7647   4.7647   4.7929   4.7929
     4.8668   4.8668   4.9438   4.9438   5.9083   5.9083   5.9695   5.9695
     7.0052   7.0052   7.1865   7.1865

          k = 0.3500 0.2021 0.0000 ( 20151 PWs)   bands (ev):

   -24.6241 -24.6241 -24.5650 -24.5650 -24.4832 -24.4832 -24.4584 -24.4584
   -23.6494 -23.6494 -23.5370 -23.5370 -23.4277 -23.4277 -23.4009 -23.4009
   -23.3149 -23.3149 -23.2740 -23.2740 -11.1852 -11.1852  -8.0678  -8.0678
    -4.4440  -4.4440  -3.2794  -3.2794  -1.6083  -1.6083  -0.3322  -0.3322
     2.1195   2.1195   3.0233   3.0233   3.1954   3.1954   3.4172   3.4172
     3.8268   3.8268   4.1519   4.1519   4.7574   4.7574   4.8191   4.8191
     4.8292   4.8292   4.9983   4.9983   6.0730   6.0730   6.1622   6.1622
     6.9722   6.9722   7.0977   7.0977

          k = 0.3333 0.1925 0.0000 ( 20145 PWs)   bands (ev):

   -24.6243 -24.6243 -24.5608 -24.5608 -24.4828 -24.4828 -24.4587 -24.4587
   -23.6502 -23.6502 -23.5337 -23.5337 -23.4299 -23.4299 -23.4012 -23.4012
   -23.3184 -23.3184 -23.2761 -23.2761 -11.2709 -11.2709  -7.8929  -7.8929
    -4.3994  -4.3994  -3.3633  -3.3633  -1.5844  -1.5844  -0.1823  -0.1823
     2.0168   2.0168   2.9154   2.9154   2.9714   2.9714   3.3137   3.3137
     3.6008   3.6008   4.1403   4.1403   4.6739   4.6739   4.7899   4.7899
     4.8703   4.8703   5.1522   5.1522   6.2406   6.2406   6.3602   6.3602
     6.9133   6.9133   7.0058   7.0058

          k = 0.3167 0.1828 0.0000 ( 20137 PWs)   bands (ev):

   -24.6243 -24.6243 -24.5566 -24.5566 -24.4823 -24.4823 -24.4590 -24.4590
   -23.6509 -23.6509 -23.5302 -23.5302 -23.4324 -23.4324 -23.4016 -23.4016
   -23.3219 -23.3219 -23.2786 -23.2786 -11.3544 -11.3544  -7.7110  -7.7110
    -4.3509  -4.3509  -3.4455  -3.4455  -1.5606  -1.5606  -0.0283  -0.0283
     1.9176   1.9176   2.6967   2.6967   2.8583   2.8583   3.2152   3.2152
     3.3766   3.3766   4.1168   4.1168   4.5831   4.5831   4.7832   4.7832
     4.9155   4.9155   5.3300   5.3300   6.3970   6.3970   6.5631   6.5631
     6.8651   6.8651   6.9146   6.9146

          k = 0.3000 0.1732 0.0000 ( 20131 PWs)   bands (ev):

   -24.6243 -24.6243 -24.5524 -24.5524 -24.4818 -24.4818 -24.4593 -24.4593
   -23.6515 -23.6515 -23.5266 -23.5266 -23.4351 -23.4351 -23.4021 -23.4021
   -23.3252 -23.3252 -23.2813 -23.2813 -11.4351 -11.4351  -7.5230  -7.5230
    -4.2988  -4.2988  -3.5252  -3.5252  -1.5378  -1.5378   0.1287   0.1287
     1.8213   1.8213   2.4576   2.4576   2.7717   2.7717   3.1214   3.1214
     3.1563   3.1563   4.0812   4.0812   4.4941   4.4941   4.7995   4.7995
     4.9648   4.9648   5.5189   5.5189   6.5031   6.5031   6.7677   6.7677
     6.8226   6.8226   6.8765   6.8765

          k = 0.2833 0.1636 0.0000 ( 20117 PWs)   bands (ev):

   -24.6240 -24.6240 -24.5482 -24.5482 -24.4812 -24.4812 -24.4595 -24.4595
   -23.6519 -23.6519 -23.5231 -23.5231 -23.4381 -23.4381 -23.4026 -23.4026
   -23.3281 -23.3281 -23.2844 -23.2844 -11.5127 -11.5127  -7.3293  -7.3293
    -4.2435  -4.2435  -3.6018  -3.6018  -1.5178  -1.5178   0.2877   0.2877
     1.7265   1.7265   2.2256   2.2256   2.6888   2.6888   2.9402   2.9402
     3.0335   3.0335   4.0360   4.0360   4.4088   4.4088   4.8362   4.8362
     5.0182   5.0182   5.7143   5.7143   6.5164   6.5164   6.7226   6.7226
     6.9484   6.9484   6.9866   6.9866

          k = 0.2667 0.1540 0.0000 ( 20103 PWs)   bands (ev):

   -24.6237 -24.6237 -24.5440 -24.5440 -24.4806 -24.4806 -24.4596 -24.4596
   -23.6522 -23.6522 -23.5196 -23.5196 -23.4415 -23.4415 -23.4031 -23.4031
   -23.3309 -23.3309 -23.2878 -23.2878 -11.5867 -11.5867  -7.1306  -7.1306
    -4.1855  -4.1855  -3.6748  -3.6748  -1.5023  -1.5023   0.4475   0.4475
     1.6305   1.6305   2.0080   2.0080   2.6053   2.6053   2.7345   2.7345
     2.9500   2.9500   3.9845   3.9845   4.3276   4.3276   4.8899   4.8899
     5.0755   5.0755   5.9115   5.9115   6.4731   6.4731   6.6012   6.6012
     6.7939   6.7939   7.1610   7.1610

          k = 0.2500 0.1443 0.0000 ( 20087 PWs)   bands (ev):

   -24.6232 -24.6232 -24.5400 -24.5400 -24.4800 -24.4800 -24.4596 -24.4596
   -23.6523 -23.6523 -23.5161 -23.5161 -23.4453 -23.4453 -23.4033 -23.4033
   -23.3333 -23.3333 -23.2914 -23.2914 -11.6569 -11.6569  -6.9271  -6.9271
    -4.1256  -4.1256  -3.7434  -3.7434  -1.4937  -1.4937   0.6068   0.6068
     1.5271   1.5271   1.8145   1.8145   2.4883   2.4883   2.5722   2.5722
     2.8715   2.8715   3.9299   3.9299   4.2509   4.2509   4.9571   4.9571
     5.1368   5.1368   6.0914   6.0914   6.4015   6.4015   6.4494   6.4494
     6.6711   6.6711   7.3615   7.3615

          k = 0.2333 0.1347 0.0000 ( 20093 PWs)   bands (ev):

   -24.6227 -24.6227 -24.5362 -24.5362 -24.4794 -24.4794 -24.4595 -24.4595
   -23.6523 -23.6523 -23.5129 -23.5129 -23.4495 -23.4495 -23.4034 -23.4034
   -23.3354 -23.3354 -23.2953 -23.2953 -11.7232 -11.7232  -6.7192  -6.7192
    -4.0656  -4.0656  -3.8061  -3.8061  -1.4948  -1.4948   0.7628   0.7628
     1.4082   1.4082   1.6582   1.6582   2.3057   2.3057   2.4862   2.4862
     2.7980   2.7980   3.8746   3.8746   4.1787   4.1787   5.0348   5.0348
     5.2019   5.2019   6.0941   6.0941   6.3659   6.3659   6.3877   6.3877
     6.6051   6.6051   7.5739   7.5739

          k = 0.2167 0.1251 0.0000 ( 20073 PWs)   bands (ev):

   -24.6220 -24.6220 -24.5326 -24.5326 -24.4788 -24.4788 -24.4592 -24.4592
   -23.6521 -23.6521 -23.5097 -23.5097 -23.4540 -23.4540 -23.4031 -23.4031
   -23.3372 -23.3372 -23.2995 -23.2995 -11.7852 -11.7852  -6.5073  -6.5073
    -4.0108  -4.0108  -3.8579  -3.8579  -1.5091  -1.5091   0.9069   0.9069
     1.2810   1.2810   1.5430   1.5430   2.1169   2.1169   2.4184   2.4184
     2.7296   2.7296   3.8202   3.8202   4.1111   4.1111   5.1208   5.1208
     5.2705   5.2705   5.8905   5.8905   6.3066   6.3066   6.4455   6.4455
     6.6646   6.6646   7.7901   7.7901

          k = 0.2000 0.1155 0.0000 ( 20069 PWs)   bands (ev):

   -24.6213 -24.6213 -24.5294 -24.5294 -24.4783 -24.4783 -24.4588 -24.4588
   -23.6517 -23.6517 -23.5068 -23.5068 -23.4588 -23.4588 -23.4025 -23.4025
   -23.3387 -23.3387 -23.3038 -23.3038 -11.8430 -11.8430  -6.2918  -6.2918
    -3.9860  -3.9860  -3.8744  -3.8744  -1.5403  -1.5403   0.9898   0.9898
     1.2092   1.2092   1.4563   1.4563   1.9349   1.9349   2.3573   2.3573
     2.6662   2.6662   3.7678   3.7678   4.0481   4.0481   5.2126   5.2126
     5.3427   5.3427   5.6630   5.6630   6.2520   6.2520   6.4076   6.4076
     6.8590   6.8590   7.9631   7.9631

          k = 0.1833 0.1058 0.0000 ( 20085 PWs)   bands (ev):

   -24.6207 -24.6207 -24.5264 -24.5264 -24.4779 -24.4779 -24.4581 -24.4581
   -23.6513 -23.6513 -23.5041 -23.5041 -23.4639 -23.4639 -23.4015 -23.4015
   -23.3400 -23.3400 -23.3083 -23.3083 -11.8964 -11.8964  -6.0729  -6.0729
    -4.0133  -4.0133  -3.8342  -3.8342  -1.5918  -1.5918   0.9284   0.9284
     1.2864   1.2864   1.3883   1.3883   1.7638   1.7638   2.3015   2.3015
     2.6078   2.6078   3.7182   3.7182   3.9897   3.9897   5.3045   5.3045
     5.4178   5.4178   5.4412   5.4412   6.2034   6.2034   6.3565   6.3565
     7.0820   7.0820   7.8752   7.8752

          k = 0.1667 0.0962 0.0000 ( 20113 PWs)   bands (ev):

   -24.6200 -24.6200 -24.5237 -24.5237 -24.4777 -24.4777 -24.4573 -24.4573
   -23.6507 -23.6507 -23.5018 -23.5018 -23.4691 -23.4691 -23.4001 -23.4001
   -23.3411 -23.3411 -23.3130 -23.3130 -11.9454 -11.9454  -5.8510  -5.8510
    -4.0557  -4.0557  -3.7749  -3.7749  -1.6666  -1.6666   0.8319   0.8319
     1.3149   1.3149   1.4172   1.4172   1.6161   1.6161   2.2505   2.2505
     2.5544   2.5544   3.6720   3.6720   3.9358   3.9358   5.2119   5.2119
     5.4127   5.4127   5.4962   5.4962   6.1618   6.1618   6.3071   6.3071
     7.3147   7.3147   7.7254   7.7254

          k = 0.1500 0.0866 0.0000 ( 20091 PWs)   bands (ev):

   -24.6193 -24.6193 -24.5213 -24.5213 -24.4774 -24.4774 -24.4562 -24.4562
   -23.6499 -23.6499 -23.4996 -23.4996 -23.4741 -23.4741 -23.3982 -23.3982
   -23.3420 -23.3420 -23.3178 -23.3178 -11.9898 -11.9898  -5.6265  -5.6265
    -4.0981  -4.0981  -3.7125  -3.7125  -1.7662  -1.7662   0.7499   0.7499
     1.2628   1.2628   1.4063   1.4063   1.6118   1.6118   2.2044   2.2044
     2.5061   2.5061   3.6294   3.6294   3.8862   3.8862   5.0073   5.0073
     5.5047   5.5047   5.5767   5.5767   6.1289   6.1289   6.2615   6.2615
     7.5457   7.5457   7.5907   7.5907

          k = 0.1333 0.0770 0.0000 ( 20087 PWs)   bands (ev):

   -24.6186 -24.6186 -24.5192 -24.5192 -24.4773 -24.4773 -24.4550 -24.4550
   -23.6490 -23.6490 -23.4977 -23.4977 -23.4790 -23.4790 -23.3960 -23.3960
   -23.3427 -23.3427 -23.3226 -23.3226 -12.0296 -12.0296  -5.3997  -5.3997
    -4.1373  -4.1373  -3.6510  -3.6510  -1.8902  -1.8902   0.6894   0.6894
     1.2107   1.2107   1.2845   1.2845   1.7326   1.7326   2.1631   2.1631
     2.4627   2.4627   3.5909   3.5909   3.8410   3.8410   4.8148   4.8148
     5.5901   5.5901   5.6589   5.6589   6.1075   6.1075   6.2205   6.2205
     7.4543   7.4543   7.7991   7.7991

          k = 0.1167 0.0674 0.0000 ( 20049 PWs)   bands (ev):

   -24.6179 -24.6179 -24.5174 -24.5174 -24.4772 -24.4772 -24.4536 -24.4536
   -23.6480 -23.6480 -23.4962 -23.4962 -23.4836 -23.4836 -23.3933 -23.3933
   -23.3432 -23.3432 -23.3274 -23.3274 -12.0649 -12.0649  -5.1712  -5.1712
    -4.1725  -4.1725  -3.5926  -3.5926  -2.0366  -2.0366   0.6494   0.6494
     1.1377   1.1377   1.1903   1.1903   1.8587   1.8587   2.1267   2.1267
     2.4244   2.4244   3.5566   3.5566   3.7998   3.7998   4.6381   4.6381
     5.6604   5.6604   5.7417   5.7417   6.1001   6.1001   6.1842   6.1842
     7.3511   7.3511   8.0438   8.0438

          k = 0.1000 0.0577 0.0000 ( 20023 PWs)   bands (ev):

   -24.6173 -24.6173 -24.5158 -24.5158 -24.4772 -24.4772 -24.4523 -24.4523
   -23.6470 -23.6470 -23.4952 -23.4952 -23.4875 -23.4875 -23.3903 -23.3903
   -23.3437 -23.3437 -23.3322 -23.3322 -12.0955 -12.0955  -4.9415  -4.9415
    -4.2034  -4.2034  -3.5391  -3.5391  -2.2018  -2.2018   0.6258   0.6258
     1.0357   1.0357   1.1437   1.1437   1.9771   1.9771   2.0952   2.0952
     2.3911   2.3911   3.5267   3.5267   3.7625   3.7625   4.4800   4.4800
     5.7091   5.7091   5.8239   5.8239   6.1075   6.1075   6.1527   6.1527
     7.2770   7.2770   7.9152   7.9152

          k = 0.0833 0.0481 0.0000 ( 20005 PWs)   bands (ev):

   -24.6167 -24.6167 -24.5146 -24.5146 -24.4773 -24.4773 -24.4511 -24.4511
   -23.6461 -23.6461 -23.4954 -23.4954 -23.4901 -23.4901 -23.3871 -23.3871
   -23.3442 -23.3442 -23.3369 -23.3369 -12.1214 -12.1214  -4.7114  -4.7114
    -4.2296  -4.2296  -3.4924  -3.4924  -2.3815  -2.3815   0.6131   0.6131
     0.9448   0.9448   1.1086   1.1086   2.0669   2.0669   2.0856   2.0856
     2.3628   2.3628   3.5012   3.5012   3.7289   3.7289   4.3428   4.3428
     5.7356   5.7356   5.9038   5.9038   6.1215   6.1215   6.1290   6.1290
     7.2390   7.2390   7.7849   7.7849

          k = 0.0667 0.0385 0.0000 ( 20015 PWs)   bands (ev):

   -24.6163 -24.6163 -24.5136 -24.5136 -24.4774 -24.4774 -24.4501 -24.4501
   -23.6452 -23.6452 -23.4974 -23.4974 -23.4907 -23.4907 -23.3837 -23.3837
   -23.3450 -23.3450 -23.3411 -23.3411 -12.1426 -12.1426  -4.4820  -4.4820
    -4.2511  -4.2511  -3.4554  -3.4554  -2.5704  -2.5704   0.6045   0.6045
     0.8744   0.8744   1.0794   1.0794   2.0462   2.0462   2.1768   2.1768
     2.3396   2.3396   3.4803   3.4803   3.6991   3.6991   4.2288   4.2288
     5.7456   5.7456   5.9785   5.9785   6.1034   6.1034   6.1420   6.1420
     7.2406   7.2406   7.6685   7.6685

          k = 0.0500 0.0289 0.0000 ( 20023 PWs)   bands (ev):

   -24.6160 -24.6160 -24.5128 -24.5128 -24.4775 -24.4775 -24.4492 -24.4492
   -23.6446 -23.6446 -23.4997 -23.4997 -23.4905 -23.4905 -23.3802 -23.3802
   -23.3475 -23.3475 -23.3434 -23.3434 -12.1591 -12.1591  -4.2716  -4.2716
    -4.2510  -4.2510  -3.4329  -3.4329  -2.7608  -2.7608   0.5944   0.5944
     0.8278   0.8278   1.0555   1.0555   2.0292   2.0292   2.2519   2.2519
     2.3214   2.3214   3.4639   3.4639   3.6734   3.6734   4.1396   4.1396
     5.7464   5.7464   6.0442   6.0442   6.0865   6.0865   6.1520   6.1520
     7.2784   7.2784   7.5696   7.5696

          k = 0.0333 0.0192 0.0000 ( 20043 PWs)   bands (ev):

   -24.6157 -24.6157 -24.5123 -24.5123 -24.4776 -24.4776 -24.4486 -24.4486
   -23.6440 -23.6440 -23.5016 -23.5016 -23.4902 -23.4902 -23.3769 -23.3769
   -23.3512 -23.3512 -23.3440 -23.3440 -12.1710 -12.1710  -4.2806  -4.2806
    -4.0318  -4.0318  -3.4360  -3.4360  -2.9380  -2.9380   0.5814   0.5814
     0.8033   0.8033   1.0374   1.0374   2.0171   2.0171   2.3075   2.3075
     2.3085   2.3085   3.4523   3.4523   3.6531   3.6531   4.0762   4.0762
     5.7437   5.7437   6.0742   6.0742   6.0951   6.0951   6.1569   6.1569
     7.3393   7.3393   7.4929   7.4929

          k = 0.0167 0.0096 0.0000 ( 20045 PWs)   bands (ev):

   -24.6156 -24.6156 -24.5120 -24.5120 -24.4777 -24.4777 -24.4481 -24.4481
   -23.6437 -23.6437 -23.5028 -23.5028 -23.4899 -23.4899 -23.3742 -23.3742
   -23.3542 -23.3542 -23.3442 -23.3442 -12.1781 -12.1781  -4.2878  -4.2878
    -3.8214  -3.8214  -3.4902  -3.4902  -3.0691  -3.0691   0.5701   0.5701
     0.7936   0.7936   1.0259   1.0259   2.0098   2.0098   2.3006   2.3006
     2.3418   2.3418   3.4453   3.4453   3.6398   3.6398   4.0385   4.0385
     5.7408   5.7408   6.0670   6.0670   6.1229   6.1229   6.1630   6.1630
     7.3991   7.3991   7.4445   7.4445

          k = 0.0000 0.0000 0.0000 ( 20025 PWs)   bands (ev):

   -24.6155 -24.6155 -24.5119 -24.5119 -24.4777 -24.4777 -24.4479 -24.4479
   -23.6436 -23.6436 -23.5032 -23.5032 -23.4898 -23.4898 -23.3731 -23.3731
   -23.3554 -23.3554 -23.3443 -23.3443 -12.1804 -12.1804  -4.2902  -4.2902
    -3.6674  -3.6674  -3.5896  -3.5896  -3.1155  -3.1155   0.5656   0.5656
     0.7913   0.7913   1.0219   1.0219   2.0074   2.0074   2.2980   2.2980
     2.3533   2.3533   3.4429   3.4429   3.6352   3.6352   4.0261   4.0261
     5.7396   5.7396   6.0646   6.0646   6.1295   6.1295   6.1678   6.1678
     7.4198   7.4198   7.4334   7.4334

     Writing all to output data dir ../tmp/stanene.save/

     init_run     :     88.83s CPU     81.54s WALL (       1 calls)
     electrons    :   6482.46s CPU   9029.20s WALL (       1 calls)

     Called by init_run:
     wfcinit      :      0.02s CPU      0.03s WALL (       1 calls)
     wfcinit:atom :      0.72s CPU      0.49s WALL (      91 calls)
     wfcinit:wfcr :    144.86s CPU    217.71s WALL (      91 calls)
     potinit      :      1.87s CPU      3.01s WALL (       1 calls)
     hinit0       :      1.98s CPU      2.51s WALL (       1 calls)

     Called by electrons:
     c_bands      :   6482.42s CPU   9029.16s WALL (       1 calls)
     v_of_rho     :      1.07s CPU      1.60s WALL (       1 calls)
     v_h          :      0.04s CPU      0.05s WALL (       1 calls)
     v_xc         :      1.03s CPU      1.55s WALL (       1 calls)
     newd         :     84.63s CPU     75.55s WALL (       1 calls)
     PAW_pot      :      0.19s CPU      0.19s WALL (       1 calls)

     Called by c_bands:
     init_us_2    :      0.50s CPU      0.43s WALL (      91 calls)
     init_us_2:cp :      0.50s CPU      0.43s WALL (      91 calls)
     cegterg      :   6320.72s CPU   8794.52s WALL (     280 calls)

     Called by sum_band:

     Called by *egterg:
     cdiaghg      :   1175.90s CPU   1070.91s WALL (    4941 calls)
     cegterg:over :   1743.68s CPU   2913.48s WALL (    4850 calls)
     cegterg:upda :    206.40s CPU    332.00s WALL (    4850 calls)
     cegterg:last :    257.98s CPU    335.65s WALL (    2071 calls)
     h_psi        :   2412.49s CPU   3422.03s WALL (    5221 calls)
     s_psi        :     89.08s CPU    150.77s WALL (    5221 calls)
     g_psi        :      4.94s CPU      4.11s WALL (    4850 calls)

     Called by h_psi:
     h_psi:calbec :   1018.68s CPU   1854.30s WALL (    5221 calls)
     vloc_psi     :   1219.92s CPU   1200.67s WALL (    5221 calls)
     add_vuspsi   :    166.82s CPU    356.93s WALL (    5221 calls)

     General routines
     calbec       :   1018.65s CPU   1853.98s WALL (    5221 calls)
     fft          :      0.67s CPU      0.85s WALL (      19 calls)
     ffts         :      0.19s CPU      0.19s WALL (       4 calls)
     fftw         :    900.21s CPU    871.47s WALL (  500684 calls)
     interpolate  :      0.24s CPU      0.24s WALL (       4 calls)
     davcio       :      9.45s CPU     57.62s WALL (     182 calls)

     Parallel routines

     PAW routines
     PAW_pot      :      0.19s CPU      0.19s WALL (       1 calls)

     PWSCF        :      1h50m CPU      2h35m WALL


   This run was terminated on:  20:41: 1  28Jun2024            

=------------------------------------------------------------------------------=
   JOB DONE.
=------------------------------------------------------------------------------=
