
     Program PWSCF v.7.2 starts on 28Jun2024 at  3:39: 7 

     This program is part of the open-source Quantum ESPRESSO suite
     for quantum simulation of materials; please cite
         "P. Giannozzi et al., J. Phys.:Condens. Matter 21 395502 (2009);
         "P. Giannozzi et al., J. Phys.:Condens. Matter 29 465901 (2017);
         "P. Giannozzi et al., J. Chem. Phys. 152 154105 (2020);
          URL http://www.quantum-espresso.org", 
     in publications or presentations arising from this work. More details at
     http://www.quantum-espresso.org/quote

     Parallel version (MPI), running on     6 processors

     MPI processes distributed on     1 nodes
     6428 MiB available memory on the printing compute node when the environment starts

     Waiting for input...
     Reading input from standard input

     Current dimensions of program PWSCF are:
     Max number of different atomic species (ntypx) = 10
     Max number of k-points (npk) =  40000
     Max angular momentum in pseudopotentials (lmaxx) =  4
     file Sn.rel-pbe-dn-kjpaw_psl.1.0.0.UPF: wavefunction(s)  5S 5P 5P 4D 4D renormalized

     R & G space division:  proc/nbgrp/npool/nimage =       6
     Subspace diagonalization in iterative solution of the eigenvalue problem:
     a serial algorithm will be used


     Parallelization info
     --------------------
     sticks:   dense  smooth     PW     G-vecs:    dense   smooth      PW
     Min         431     214     61                75909    26818    4015
     Max         432     215     62                75924    26841    4025
     Sum        2587    1285    367               455489   160939   24117

     Using Slab Decomposition



     bravais-lattice index     =            4
     lattice parameter (alat)  =       8.8506  a.u.
     unit-cell volume          =    2563.9136 (a.u.)^3
     number of atoms/cell      =            2
     number of atomic types    =            1
     number of electrons       =        28.00
     number of Kohn-Sham states=           60
     kinetic-energy cutoff     =      60.0000  Ry
     charge density cutoff     =     480.0000  Ry
     scf convergence threshold =      1.0E-07
     mixing beta               =       0.7000
     number of iterations used =            8  plain     mixing
     Exchange-correlation= SLA  PW   PBX  PBC
                           (   1   4   3   4   0   0   0)
     Non magnetic calculation with spin-orbit


     celldm(1)=   8.850584  celldm(2)=   0.000000  celldm(3)=   4.270286
     celldm(4)=   0.000000  celldm(5)=   0.000000  celldm(6)=   0.000000

     crystal axes: (cart. coord. in units of alat)
               a(1) = (   1.000000   0.000000   0.000000 )  
               a(2) = (  -0.500000   0.866025   0.000000 )  
               a(3) = (   0.000000   0.000000   4.270286 )  

     reciprocal axes: (cart. coord. in units 2 pi/alat)
               b(1) = (  1.000000  0.577350 -0.000000 )  
               b(2) = (  0.000000  1.154701  0.000000 )  
               b(3) = (  0.000000 -0.000000  0.234176 )  


     PseudoPot. # 1 for Sn read from file:
     ../pseudo/Sn.rel-pbe-dn-kjpaw_psl.1.0.0.UPF
     MD5 check sum: 5b106090e9f9887b12f0b328897b8753
     Pseudo is Projector augmented-wave + core cor, Zval = 14.0
     Generated using &quot;atomic&quot; code by A. Dal Corso  v.6.3
     Shape of augmentation charge: PSQ
     Using radial grid of 1243 points, 10 beta functions with: 
                l(1) =   0
                l(2) =   0
                l(3) =   1
                l(4) =   1
                l(5) =   1
                l(6) =   1
                l(7) =   2
                l(8) =   2
                l(9) =   2
               l(10) =   2
     Q(r) pseudized with 0 coefficients 


     atomic species   valence    mass     pseudopotential
        Sn            14.00   118.71000     Sn( 1.00)

     24 Sym. Ops., with inversion, found


                                    s                        frac. trans.

      isym =  1     identity                                     

 cryst.   s( 1) = (     1          0          0      )
                  (     0          1          0      )
                  (     0          0          1      )

 cart.    s( 1) = (  1.0000000  0.0000000  0.0000000 )
                  (  0.0000000  1.0000000  0.0000000 )
                  (  0.0000000  0.0000000  1.0000000 )


      isym =  2     180 deg rotation - cart. axis [0,0,1]        

 cryst.   s( 2) = (    -1          0          0      )
                  (     0         -1          0      )
                  (     0          0          1      )

 cart.    s( 2) = ( -1.0000000  0.0000000  0.0000000 )
                  (  0.0000000 -1.0000000  0.0000000 )
                  (  0.0000000  0.0000000  1.0000000 )


      isym =  3     180 deg rotation - cart. axis [0,1,0]        

 cryst.   s( 3) = (    -1          0          0      )
                  (     1          1          0      )
                  (     0          0         -1      )

 cart.    s( 3) = ( -1.0000000  0.0000000  0.0000000 )
                  (  0.0000000  1.0000000  0.0000000 )
                  (  0.0000000  0.0000000 -1.0000000 )


      isym =  4     180 deg rotation - cart. axis [1,0,0]        

 cryst.   s( 4) = (     1          0          0      )
                  (    -1         -1          0      )
                  (     0          0         -1      )

 cart.    s( 4) = (  1.0000000  0.0000000  0.0000000 )
                  (  0.0000000 -1.0000000  0.0000000 )
                  (  0.0000000  0.0000000 -1.0000000 )


      isym =  5      60 deg rotation - cryst. axis [0,0,1]       

 cryst.   s( 5) = (     1          1          0      )
                  (    -1          0          0      )
                  (     0          0          1      )

 cart.    s( 5) = (  0.5000000 -0.8660254  0.0000000 )
                  (  0.8660254  0.5000000  0.0000000 )
                  (  0.0000000  0.0000000  1.0000000 )


      isym =  6      60 deg rotation - cryst. axis [0,0,-1]      

 cryst.   s( 6) = (     0         -1          0      )
                  (     1          1          0      )
                  (     0          0          1      )

 cart.    s( 6) = (  0.5000000  0.8660254  0.0000000 )
                  ( -0.8660254  0.5000000  0.0000000 )
                  (  0.0000000  0.0000000  1.0000000 )


      isym =  7     120 deg rotation - cryst. axis [0,0,1]       

 cryst.   s( 7) = (     0          1          0      )
                  (    -1         -1          0      )
                  (     0          0          1      )

 cart.    s( 7) = ( -0.5000000 -0.8660254  0.0000000 )
                  (  0.8660254 -0.5000000  0.0000000 )
                  (  0.0000000  0.0000000  1.0000000 )


      isym =  8     120 deg rotation - cryst. axis [0,0,-1]      

 cryst.   s( 8) = (    -1         -1          0      )
                  (     1          0          0      )
                  (     0          0          1      )

 cart.    s( 8) = ( -0.5000000  0.8660254  0.0000000 )
                  ( -0.8660254 -0.5000000  0.0000000 )
                  (  0.0000000  0.0000000  1.0000000 )


      isym =  9     180 deg rotation - cryst. axis [1,-1,0]      

 cryst.   s( 9) = (     0         -1          0      )
                  (    -1          0          0      )
                  (     0          0         -1      )

 cart.    s( 9) = (  0.5000000 -0.8660254  0.0000000 )
                  ( -0.8660254 -0.5000000  0.0000000 )
                  (  0.0000000  0.0000000 -1.0000000 )


      isym = 10     180 deg rotation - cryst. axis [2,1,0]       

 cryst.   s(10) = (     1          1          0      )
                  (     0         -1          0      )
                  (     0          0         -1      )

 cart.    s(10) = (  0.5000000  0.8660254  0.0000000 )
                  (  0.8660254 -0.5000000  0.0000000 )
                  (  0.0000000  0.0000000 -1.0000000 )


      isym = 11     180 deg rotation - cryst. axis [0,1,0]       

 cryst.   s(11) = (    -1         -1          0      )
                  (     0          1          0      )
                  (     0          0         -1      )

 cart.    s(11) = ( -0.5000000 -0.8660254  0.0000000 )
                  ( -0.8660254  0.5000000  0.0000000 )
                  (  0.0000000  0.0000000 -1.0000000 )


      isym = 12     180 deg rotation - cryst. axis [1,1,0]       

 cryst.   s(12) = (     0          1          0      )
                  (     1          0          0      )
                  (     0          0         -1      )

 cart.    s(12) = ( -0.5000000  0.8660254  0.0000000 )
                  (  0.8660254  0.5000000  0.0000000 )
                  (  0.0000000  0.0000000 -1.0000000 )


      isym = 13     inversion                                    

 cryst.   s(13) = (    -1          0          0      )
                  (     0         -1          0      )
                  (     0          0         -1      )

 cart.    s(13) = ( -1.0000000  0.0000000  0.0000000 )
                  (  0.0000000 -1.0000000  0.0000000 )
                  (  0.0000000  0.0000000 -1.0000000 )


      isym = 14     inv. 180 deg rotation - cart. axis [0,0,1]   

 cryst.   s(14) = (     1          0          0      )
                  (     0          1          0      )
                  (     0          0         -1      )

 cart.    s(14) = (  1.0000000  0.0000000  0.0000000 )
                  (  0.0000000  1.0000000  0.0000000 )
                  (  0.0000000  0.0000000 -1.0000000 )


      isym = 15     inv. 180 deg rotation - cart. axis [0,1,0]   

 cryst.   s(15) = (     1          0          0      )
                  (    -1         -1          0      )
                  (     0          0          1      )

 cart.    s(15) = (  1.0000000  0.0000000  0.0000000 )
                  (  0.0000000 -1.0000000  0.0000000 )
                  (  0.0000000  0.0000000  1.0000000 )


      isym = 16     inv. 180 deg rotation - cart. axis [1,0,0]   

 cryst.   s(16) = (    -1          0          0      )
                  (     1          1          0      )
                  (     0          0          1      )

 cart.    s(16) = ( -1.0000000  0.0000000  0.0000000 )
                  (  0.0000000  1.0000000  0.0000000 )
                  (  0.0000000  0.0000000  1.0000000 )


      isym = 17     inv.  60 deg rotation - cryst. axis [0,0,1]  

 cryst.   s(17) = (    -1         -1          0      )
                  (     1          0          0      )
                  (     0          0         -1      )

 cart.    s(17) = ( -0.5000000  0.8660254  0.0000000 )
                  ( -0.8660254 -0.5000000  0.0000000 )
                  (  0.0000000  0.0000000 -1.0000000 )


      isym = 18     inv.  60 deg rotation - cryst. axis [0,0,-1] 

 cryst.   s(18) = (     0          1          0      )
                  (    -1         -1          0      )
                  (     0          0         -1      )

 cart.    s(18) = ( -0.5000000 -0.8660254  0.0000000 )
                  (  0.8660254 -0.5000000  0.0000000 )
                  (  0.0000000  0.0000000 -1.0000000 )


      isym = 19     inv. 120 deg rotation - cryst. axis [0,0,1]  

 cryst.   s(19) = (     0         -1          0      )
                  (     1          1          0      )
                  (     0          0         -1      )

 cart.    s(19) = (  0.5000000  0.8660254  0.0000000 )
                  ( -0.8660254  0.5000000  0.0000000 )
                  (  0.0000000  0.0000000 -1.0000000 )


      isym = 20     inv. 120 deg rotation - cryst. axis [0,0,-1] 

 cryst.   s(20) = (     1          1          0      )
                  (    -1          0          0      )
                  (     0          0         -1      )

 cart.    s(20) = (  0.5000000 -0.8660254  0.0000000 )
                  (  0.8660254  0.5000000  0.0000000 )
                  (  0.0000000  0.0000000 -1.0000000 )


      isym = 21     inv. 180 deg rotation - cryst. axis [1,-1,0] 

 cryst.   s(21) = (     0          1          0      )
                  (     1          0          0      )
                  (     0          0          1      )

 cart.    s(21) = ( -0.5000000  0.8660254  0.0000000 )
                  (  0.8660254  0.5000000  0.0000000 )
                  (  0.0000000  0.0000000  1.0000000 )


      isym = 22     inv. 180 deg rotation - cryst. axis [2,1,0]  

 cryst.   s(22) = (    -1         -1          0      )
                  (     0          1          0      )
                  (     0          0          1      )

 cart.    s(22) = ( -0.5000000 -0.8660254  0.0000000 )
                  ( -0.8660254  0.5000000  0.0000000 )
                  (  0.0000000  0.0000000  1.0000000 )


      isym = 23     inv. 180 deg rotation - cryst. axis [0,1,0]  

 cryst.   s(23) = (     1          1          0      )
                  (     0         -1          0      )
                  (     0          0          1      )

 cart.    s(23) = (  0.5000000  0.8660254  0.0000000 )
                  (  0.8660254 -0.5000000  0.0000000 )
                  (  0.0000000  0.0000000  1.0000000 )


      isym = 24     inv. 180 deg rotation - cryst. axis [1,1,0]  

 cryst.   s(24) = (     0         -1          0      )
                  (    -1          0          0      )
                  (     0          0          1      )

 cart.    s(24) = (  0.5000000 -0.8660254  0.0000000 )
                  ( -0.8660254 -0.5000000  0.0000000 )
                  (  0.0000000  0.0000000  1.0000000 )


     double point group D_6h(6/mmm)
     there are 18 classes and  6 irreducible representations
     the character table:

       E     -E    2C6   -2C6  2C3   -2C3  C2     3C2' 3C2''  i    -i    2S3  
                                           -C2   -3C2' -3C2'                  
G_7+   2.00 -2.00  1.73 -1.73  1.00 -1.00  0.00  0.00  0.00  2.00 -2.00  1.73
G_8+   2.00 -2.00 -1.73  1.73  1.00 -1.00  0.00  0.00  0.00  2.00 -2.00 -1.73
G_9+   2.00 -2.00  0.00  0.00 -2.00  2.00  0.00  0.00  0.00  2.00 -2.00  0.00
G_7-   2.00 -2.00  1.73 -1.73  1.00 -1.00  0.00  0.00  0.00 -2.00  2.00 -1.73
G_8-   2.00 -2.00 -1.73  1.73  1.00 -1.00  0.00  0.00  0.00 -2.00  2.00  1.73
G_9-   2.00 -2.00  0.00  0.00 -2.00  2.00  0.00  0.00  0.00 -2.00  2.00  0.00

       -2S3  2S6   -2S6   s_h   3s_v  3s_d
                         -s_h  -3s_v -3s_d
G_7+  -1.73  1.00 -1.00  0.00  0.00  0.00
G_8+   1.73  1.00 -1.00  0.00  0.00  0.00
G_9+   0.00 -2.00  2.00  0.00  0.00  0.00
G_7-   1.73 -1.00  1.00  0.00  0.00  0.00
G_8-  -1.73 -1.00  1.00  0.00  0.00  0.00
G_9-   0.00  2.00 -2.00  0.00  0.00  0.00

     the symmetry operations in each class and the name of the first element:

     E             1
          identity                                               
     -E           -1
          identity E                                             
     2C6           5    6
           60 deg rotation - cryst. axis [0,0,1]                 
     -2C6         -5   -6
           60 deg rotation - cryst. axis [0,0,1] E               
     2C3           7    8
          120 deg rotation - cryst. axis [0,0,1]                 
     -2C3         -7   -8
          120 deg rotation - cryst. axis [0,0,1] E               
     C2   -C2      2   -2
          180 deg rotation - cart. axis [0,0,1]                  
      3C2'-3C2'    4   -4   12   11  -11  -12
          180 deg rotation - cart. axis [1,0,0]                  
     3C2''-3C2'    3   -3   -9   10  -10    9
          180 deg rotation - cart. axis [0,1,0]                  
      i           13
          inversion                                              
     -i          -13
          inversion E                                            
     2S3          17   18
          inv.  60 deg rotation - cryst. axis [0,0,1]            
     -2S3        -17  -18
          inv.  60 deg rotation - cryst. axis [0,0,1] E          
     2S6          19   20
          inv. 120 deg rotation - cryst. axis [0,0,1]            
     -2S6        -19  -20
          inv. 120 deg rotation - cryst. axis [0,0,1] E          
      s_h -s_h    14  -14
          inv. 180 deg rotation - cart. axis [0,0,1]             
      3s_v-3s_v   16  -16   24   23  -23  -24
          inv. 180 deg rotation - cart. axis [1,0,0]             
      3s_d-3s_d   15  -15  -21   22  -22   21
          inv. 180 deg rotation - cart. axis [0,1,0]             

   Cartesian axes

     site n.     atom                  positions (alat units)
         1           Sn  tau(   1) = (   0.0000000   0.5773503   2.1351428  )
         2           Sn  tau(   2) = (   0.5000000   0.2886751   2.1351428  )

   Crystallographic axes

     site n.     atom                  positions (cryst. coord.)
         1           Sn  tau(   1) = (  0.3333333  0.6666667  0.5000000  )
         2           Sn  tau(   2) = (  0.6666667  0.3333333  0.5000000  )

     number of k points=    61  Methfessel-Paxton smearing, width (Ry)=  0.0200
                       cart. coord. in units 2pi/alat
        k(    1) = (   0.0000000   0.0000000   0.0000000), wk =   0.0017361
        k(    2) = (   0.0000000   0.0481125   0.0000000), wk =   0.0104167
        k(    3) = (   0.0000000   0.0962250   0.0000000), wk =   0.0104167
        k(    4) = (   0.0000000   0.1443376   0.0000000), wk =   0.0104167
        k(    5) = (   0.0000000   0.1924501   0.0000000), wk =   0.0104167
        k(    6) = (   0.0000000   0.2405626   0.0000000), wk =   0.0104167
        k(    7) = (   0.0000000   0.2886751   0.0000000), wk =   0.0104167
        k(    8) = (   0.0000000   0.3367877   0.0000000), wk =   0.0104167
        k(    9) = (   0.0000000   0.3849002   0.0000000), wk =   0.0104167
        k(   10) = (   0.0000000   0.4330127   0.0000000), wk =   0.0104167
        k(   11) = (   0.0000000   0.4811252   0.0000000), wk =   0.0104167
        k(   12) = (   0.0000000   0.5292377   0.0000000), wk =   0.0104167
        k(   13) = (   0.0000000  -0.5773503   0.0000000), wk =   0.0052083
        k(   14) = (   0.0416667   0.0721688   0.0000000), wk =   0.0104167
        k(   15) = (   0.0416667   0.1202813   0.0000000), wk =   0.0208333
        k(   16) = (   0.0416667   0.1683938   0.0000000), wk =   0.0208333
        k(   17) = (   0.0416667   0.2165064   0.0000000), wk =   0.0208333
        k(   18) = (   0.0416667   0.2646189   0.0000000), wk =   0.0208333
        k(   19) = (   0.0416667   0.3127314   0.0000000), wk =   0.0208333
        k(   20) = (   0.0416667   0.3608439   0.0000000), wk =   0.0208333
        k(   21) = (   0.0416667   0.4089564   0.0000000), wk =   0.0208333
        k(   22) = (   0.0416667   0.4570690   0.0000000), wk =   0.0208333
        k(   23) = (   0.0416667   0.5051815   0.0000000), wk =   0.0208333
        k(   24) = (   0.0416667   0.5532940   0.0000000), wk =   0.0208333
        k(   25) = (   0.0833333   0.1443376   0.0000000), wk =   0.0104167
        k(   26) = (   0.0833333   0.1924501   0.0000000), wk =   0.0208333
        k(   27) = (   0.0833333   0.2405626   0.0000000), wk =   0.0208333
        k(   28) = (   0.0833333   0.2886751   0.0000000), wk =   0.0208333
        k(   29) = (   0.0833333   0.3367877   0.0000000), wk =   0.0208333
        k(   30) = (   0.0833333   0.3849002   0.0000000), wk =   0.0208333
        k(   31) = (   0.0833333   0.4330127   0.0000000), wk =   0.0208333
        k(   32) = (   0.0833333   0.4811252   0.0000000), wk =   0.0208333
        k(   33) = (   0.0833333   0.5292377   0.0000000), wk =   0.0208333
        k(   34) = (   0.0833333   0.5773503   0.0000000), wk =   0.0104167
        k(   35) = (   0.1250000   0.2165064   0.0000000), wk =   0.0104167
        k(   36) = (   0.1250000   0.2646189   0.0000000), wk =   0.0208333
        k(   37) = (   0.1250000   0.3127314   0.0000000), wk =   0.0208333
        k(   38) = (   0.1250000   0.3608439   0.0000000), wk =   0.0208333
        k(   39) = (   0.1250000   0.4089564   0.0000000), wk =   0.0208333
        k(   40) = (   0.1250000   0.4570690   0.0000000), wk =   0.0208333
        k(   41) = (   0.1250000   0.5051815   0.0000000), wk =   0.0208333
        k(   42) = (   0.1250000   0.5532940   0.0000000), wk =   0.0208333
        k(   43) = (   0.1666667   0.2886751   0.0000000), wk =   0.0104167
        k(   44) = (   0.1666667   0.3367877   0.0000000), wk =   0.0208333
        k(   45) = (   0.1666667   0.3849002   0.0000000), wk =   0.0208333
        k(   46) = (   0.1666667   0.4330127   0.0000000), wk =   0.0208333
        k(   47) = (   0.1666667   0.4811252   0.0000000), wk =   0.0208333
        k(   48) = (   0.1666667   0.5292377   0.0000000), wk =   0.0208333
        k(   49) = (   0.1666667   0.5773503   0.0000000), wk =   0.0104167
        k(   50) = (   0.2083333   0.3608439   0.0000000), wk =   0.0104167
        k(   51) = (   0.2083333   0.4089564   0.0000000), wk =   0.0208333
        k(   52) = (   0.2083333   0.4570690   0.0000000), wk =   0.0208333
        k(   53) = (   0.2083333   0.5051815   0.0000000), wk =   0.0208333
        k(   54) = (   0.2083333   0.5532940   0.0000000), wk =   0.0208333
        k(   55) = (   0.2500000   0.4330127   0.0000000), wk =   0.0104167
        k(   56) = (   0.2500000   0.4811252   0.0000000), wk =   0.0208333
        k(   57) = (   0.2500000   0.5292377   0.0000000), wk =   0.0208333
        k(   58) = (   0.2500000   0.5773503   0.0000000), wk =   0.0104167
        k(   59) = (   0.2916667   0.5051815   0.0000000), wk =   0.0104167
        k(   60) = (   0.2916667   0.5532940   0.0000000), wk =   0.0208333
        k(   61) = (   0.3333333   0.5773503   0.0000000), wk =   0.0034722

                       cryst. coord.
        k(    1) = (   0.0000000   0.0000000   0.0000000), wk =   0.0017361
        k(    2) = (   0.0000000   0.0416667   0.0000000), wk =   0.0104167
        k(    3) = (   0.0000000   0.0833333   0.0000000), wk =   0.0104167
        k(    4) = (   0.0000000   0.1250000   0.0000000), wk =   0.0104167
        k(    5) = (   0.0000000   0.1666667   0.0000000), wk =   0.0104167
        k(    6) = (   0.0000000   0.2083333   0.0000000), wk =   0.0104167
        k(    7) = (   0.0000000   0.2500000   0.0000000), wk =   0.0104167
        k(    8) = (   0.0000000   0.2916667   0.0000000), wk =   0.0104167
        k(    9) = (   0.0000000   0.3333333   0.0000000), wk =   0.0104167
        k(   10) = (   0.0000000   0.3750000   0.0000000), wk =   0.0104167
        k(   11) = (   0.0000000   0.4166667   0.0000000), wk =   0.0104167
        k(   12) = (   0.0000000   0.4583333   0.0000000), wk =   0.0104167
        k(   13) = (   0.0000000  -0.5000000   0.0000000), wk =   0.0052083
        k(   14) = (   0.0416667   0.0416667   0.0000000), wk =   0.0104167
        k(   15) = (   0.0416667   0.0833333   0.0000000), wk =   0.0208333
        k(   16) = (   0.0416667   0.1250000   0.0000000), wk =   0.0208333
        k(   17) = (   0.0416667   0.1666667   0.0000000), wk =   0.0208333
        k(   18) = (   0.0416667   0.2083333   0.0000000), wk =   0.0208333
        k(   19) = (   0.0416667   0.2500000   0.0000000), wk =   0.0208333
        k(   20) = (   0.0416667   0.2916667   0.0000000), wk =   0.0208333
        k(   21) = (   0.0416667   0.3333333   0.0000000), wk =   0.0208333
        k(   22) = (   0.0416667   0.3750000   0.0000000), wk =   0.0208333
        k(   23) = (   0.0416667   0.4166667   0.0000000), wk =   0.0208333
        k(   24) = (   0.0416667   0.4583333   0.0000000), wk =   0.0208333
        k(   25) = (   0.0833333   0.0833333   0.0000000), wk =   0.0104167
        k(   26) = (   0.0833333   0.1250000   0.0000000), wk =   0.0208333
        k(   27) = (   0.0833333   0.1666667   0.0000000), wk =   0.0208333
        k(   28) = (   0.0833333   0.2083333   0.0000000), wk =   0.0208333
        k(   29) = (   0.0833333   0.2500000   0.0000000), wk =   0.0208333
        k(   30) = (   0.0833333   0.2916667   0.0000000), wk =   0.0208333
        k(   31) = (   0.0833333   0.3333333   0.0000000), wk =   0.0208333
        k(   32) = (   0.0833333   0.3750000   0.0000000), wk =   0.0208333
        k(   33) = (   0.0833333   0.4166667   0.0000000), wk =   0.0208333
        k(   34) = (   0.0833333   0.4583333   0.0000000), wk =   0.0104167
        k(   35) = (   0.1250000   0.1250000   0.0000000), wk =   0.0104167
        k(   36) = (   0.1250000   0.1666667   0.0000000), wk =   0.0208333
        k(   37) = (   0.1250000   0.2083333   0.0000000), wk =   0.0208333
        k(   38) = (   0.1250000   0.2500000   0.0000000), wk =   0.0208333
        k(   39) = (   0.1250000   0.2916667   0.0000000), wk =   0.0208333
        k(   40) = (   0.1250000   0.3333333   0.0000000), wk =   0.0208333
        k(   41) = (   0.1250000   0.3750000   0.0000000), wk =   0.0208333
        k(   42) = (   0.1250000   0.4166667   0.0000000), wk =   0.0208333
        k(   43) = (   0.1666667   0.1666667   0.0000000), wk =   0.0104167
        k(   44) = (   0.1666667   0.2083333   0.0000000), wk =   0.0208333
        k(   45) = (   0.1666667   0.2500000   0.0000000), wk =   0.0208333
        k(   46) = (   0.1666667   0.2916667   0.0000000), wk =   0.0208333
        k(   47) = (   0.1666667   0.3333333   0.0000000), wk =   0.0208333
        k(   48) = (   0.1666667   0.3750000   0.0000000), wk =   0.0208333
        k(   49) = (   0.1666667   0.4166667   0.0000000), wk =   0.0104167
        k(   50) = (   0.2083333   0.2083333   0.0000000), wk =   0.0104167
        k(   51) = (   0.2083333   0.2500000   0.0000000), wk =   0.0208333
        k(   52) = (   0.2083333   0.2916667   0.0000000), wk =   0.0208333
        k(   53) = (   0.2083333   0.3333333   0.0000000), wk =   0.0208333
        k(   54) = (   0.2083333   0.3750000   0.0000000), wk =   0.0208333
        k(   55) = (   0.2500000   0.2500000   0.0000000), wk =   0.0104167
        k(   56) = (   0.2500000   0.2916667   0.0000000), wk =   0.0208333
        k(   57) = (   0.2500000   0.3333333   0.0000000), wk =   0.0208333
        k(   58) = (   0.2500000   0.3750000   0.0000000), wk =   0.0104167
        k(   59) = (   0.2916667   0.2916667   0.0000000), wk =   0.0104167
        k(   60) = (   0.2916667   0.3333333   0.0000000), wk =   0.0208333
        k(   61) = (   0.3333333   0.3333333   0.0000000), wk =   0.0034722

     Dense  grid:   455489 G-vectors     FFT dimensions: (  64,  64, 270)

     Smooth grid:   160939 G-vectors     FFT dimensions: (  45,  45, 192)

     Dynamical RAM for                 wfc:       6.14 MB

     Dynamical RAM for     wfc (w. buffer):     380.65 MB

     Dynamical RAM for           str. fact:       1.16 MB

     Dynamical RAM for           local pot:       0.00 MB

     Dynamical RAM for          nlocal pot:       3.48 MB

     Dynamical RAM for                qrad:       4.60 MB

     Dynamical RAM for          rho,v,vnew:      30.77 MB

     Dynamical RAM for               rhoin:      10.26 MB

     Dynamical RAM for            rho*nmix:      74.13 MB

     Dynamical RAM for           G-vectors:       4.55 MB

     Dynamical RAM for          h,s,v(r/c):       0.66 MB

     Dynamical RAM for          <psi|beta>:       0.12 MB

     Dynamical RAM for                 psi:      12.28 MB

     Dynamical RAM for                hpsi:      12.28 MB

     Dynamical RAM for                spsi:      12.28 MB

     Dynamical RAM for      wfcinit/wfcrot:       9.29 MB

     Dynamical RAM for           addusdens:     708.89 MB

     Estimated static dynamical RAM per process >     449.04 MB

     Estimated max dynamical RAM per process >       1.20 GB

     Estimated total dynamical RAM >       7.22 GB

     Initial potential from superposition of free atoms

     starting charge      27.9978, renormalised to      28.0000

     negative rho (up, down):  4.147E-04 0.000E+00
     Starting wfcs are   36 randomized atomic wfcs +   24 random wfcs
     Checking if some PAW data can be deallocated... 

     total cpu time spent up to now is      369.6 secs

     Self-consistent Calculation

     iteration #  1     ecut=    60.00 Ry     beta= 0.70
     Davidson diagonalization with overlap

---- Real-time Memory Report at c_bands before calling an iterative solver
           814 MiB given to the printing process from OS
             0 MiB allocation reported by mallinfo(arena+hblkhd)
          3428 MiB available memory on the node where the printing process lives
------------------
     ethr =  1.00E-02,  avg # of iterations =  9.0

     Threshold (ethr) on eigenvalues was too large:
     Diagonalizing with lowered threshold

     Davidson diagonalization with overlap

---- Real-time Memory Report at c_bands before calling an iterative solver
          1225 MiB given to the printing process from OS
             0 MiB allocation reported by mallinfo(arena+hblkhd)
          3869 MiB available memory on the node where the printing process lives
------------------
     ethr =  6.58E-05,  avg # of iterations = 10.1

     negative rho (up, down):  3.551E-04 0.000E+00

     total cpu time spent up to now is     3189.3 secs

     total energy              =    -885.77971208 Ry
     estimated scf accuracy    <       0.01893453 Ry

     iteration #  2     ecut=    60.00 Ry     beta= 0.70
     Davidson diagonalization with overlap

---- Real-time Memory Report at c_bands before calling an iterative solver
          1225 MiB given to the printing process from OS
             0 MiB allocation reported by mallinfo(arena+hblkhd)
          4160 MiB available memory on the node where the printing process lives
------------------
     ethr =  6.76E-05,  avg # of iterations =  2.0

     negative rho (up, down):  3.368E-04 0.000E+00

     total cpu time spent up to now is     3704.7 secs

     total energy              =    -885.78075180 Ry
     estimated scf accuracy    <       0.00143097 Ry

     iteration #  3     ecut=    60.00 Ry     beta= 0.70
     Davidson diagonalization with overlap

---- Real-time Memory Report at c_bands before calling an iterative solver
          1225 MiB given to the printing process from OS
             0 MiB allocation reported by mallinfo(arena+hblkhd)
          4218 MiB available memory on the node where the printing process lives
------------------
     c_bands:  2 eigenvalues not converged
     c_bands:  1 eigenvalues not converged
     c_bands:  1 eigenvalues not converged
     c_bands:  2 eigenvalues not converged
     ethr =  5.11E-06,  avg # of iterations =  9.9

     negative rho (up, down):  3.318E-04 0.000E+00

     total cpu time spent up to now is     4731.7 secs

     total energy              =    -885.78103555 Ry
     estimated scf accuracy    <       0.00009131 Ry

     iteration #  4     ecut=    60.00 Ry     beta= 0.70
     Davidson diagonalization with overlap

---- Real-time Memory Report at c_bands before calling an iterative solver
          1225 MiB given to the printing process from OS
             0 MiB allocation reported by mallinfo(arena+hblkhd)
          4119 MiB available memory on the node where the printing process lives
------------------
     c_bands:  2 eigenvalues not converged
     ethr =  3.26E-07,  avg # of iterations =  2.6

     negative rho (up, down):  3.309E-04 0.000E+00

     total cpu time spent up to now is     5360.1 secs

     total energy              =    -885.78106258 Ry
     estimated scf accuracy    <       0.00000343 Ry

     iteration #  5     ecut=    60.00 Ry     beta= 0.70
     Davidson diagonalization with overlap

---- Real-time Memory Report at c_bands before calling an iterative solver
          1229 MiB given to the printing process from OS
             0 MiB allocation reported by mallinfo(arena+hblkhd)
          4256 MiB available memory on the node where the printing process lives
------------------
     ethr =  1.23E-08,  avg # of iterations =  2.0

     negative rho (up, down):  3.306E-04 0.000E+00

     total cpu time spent up to now is     5887.9 secs

     total energy              =    -885.78106309 Ry
     estimated scf accuracy    <       0.00000041 Ry

     iteration #  6     ecut=    60.00 Ry     beta= 0.70
     Davidson diagonalization with overlap

---- Real-time Memory Report at c_bands before calling an iterative solver
          1229 MiB given to the printing process from OS
             0 MiB allocation reported by mallinfo(arena+hblkhd)
          4189 MiB available memory on the node where the printing process lives
------------------
     ethr =  1.47E-09,  avg # of iterations =  2.0

     negative rho (up, down):  3.305E-04 0.000E+00

     total cpu time spent up to now is     6459.3 secs

     End of self-consistent calculation

          k = 0.0000 0.0000 0.0000 ( 20025 PWs)   bands (ev):

   -24.6149 -24.6149 -24.5111 -24.5111 -24.4769 -24.4769 -24.4473 -24.4473
   -23.6430 -23.6430 -23.5024 -23.5024 -23.4891 -23.4891 -23.3724 -23.3724
   -23.3546 -23.3546 -23.3435 -23.3435 -12.1803 -12.1803  -4.2900  -4.2900
    -3.6672  -3.6672  -3.5895  -3.5895  -3.1154  -3.1154   0.5657   0.5657
     0.7914   0.7914   1.0220   1.0220   2.0074   2.0074   2.2979   2.2979
     2.3536   2.3536   3.4429   3.4429   3.6351   3.6351   4.0257   4.0257
     5.7396   5.7397   6.0645   6.0646   6.1296   6.1296   6.1680   6.1680
     7.4199   7.4199   7.4334   7.4334

     occupation numbers 
     1.0000   1.0000   1.0000   1.0000   1.0000   1.0000   1.0000   1.0000
     1.0000   1.0000   1.0000   1.0000   1.0000   1.0000   1.0000   1.0000
     1.0000   1.0000   1.0000   1.0000   1.0000   1.0000   1.0000   1.0000
     1.0000   1.0000   1.0000   1.0000   1.0000   1.0000  -0.0000  -0.0000
    -0.0000  -0.0000  -0.0000  -0.0000  -0.0000  -0.0000  -0.0000  -0.0000
    -0.0000  -0.0000  -0.0000  -0.0000  -0.0000  -0.0000  -0.0000  -0.0000
    -0.0000  -0.0000  -0.0000  -0.0000  -0.0000  -0.0000  -0.0000  -0.0000
    -0.0000  -0.0000  -0.0000  -0.0000

          k = 0.0000 0.0481 0.0000 ( 20035 PWs)   bands (ev):

   -24.6152 -24.6152 -24.5118 -24.5118 -24.4768 -24.4768 -24.4482 -24.4482
   -23.6437 -23.6437 -23.5000 -23.5000 -23.4895 -23.4895 -23.3779 -23.3779
   -23.3487 -23.3487 -23.3430 -23.3430 -12.1655 -12.1655  -4.2752  -4.2752
    -4.1417  -4.1417  -3.4299  -3.4299  -2.8524  -2.8524   0.5882   0.5882
     0.8133   0.8133   1.0457   1.0457   2.0226   2.0226   2.2825   2.2825
     2.3142   2.3142   3.4575   3.4575   3.6624   3.6624   4.1043   4.1043
     5.7452   5.7452   6.0719   6.0719   6.0800   6.0800   6.1549   6.1549
     7.3072   7.3072   7.5283   7.5284

     occupation numbers 
     1.0000   1.0000   1.0000   1.0000   1.0000   1.0000   1.0000   1.0000
     1.0000   1.0000   1.0000   1.0000   1.0000   1.0000   1.0000   1.0000
     1.0000   1.0000   1.0000   1.0000   1.0000   1.0000   1.0000   1.0000
     1.0000   1.0000   1.0000   1.0000   1.0046   1.0046  -0.0000  -0.0000
    -0.0000  -0.0000  -0.0000  -0.0000  -0.0000  -0.0000  -0.0000  -0.0000
    -0.0000  -0.0000  -0.0000  -0.0000  -0.0000  -0.0000  -0.0000  -0.0000
    -0.0000  -0.0000  -0.0000  -0.0000  -0.0000  -0.0000  -0.0000  -0.0000
    -0.0000  -0.0000  -0.0000  -0.0000

          k = 0.0000 0.0962 0.0000 ( 20005 PWs)   bands (ev):

   -24.6161 -24.6161 -24.5138 -24.5138 -24.4765 -24.4765 -24.4504 -24.4504
   -23.6455 -23.6455 -23.4946 -23.4946 -23.4894 -23.4894 -23.3864 -23.3864
   -23.3434 -23.3434 -23.3362 -23.3362 -12.1212 -12.1212  -4.7113  -4.7113
    -4.2295  -4.2295  -3.4923  -3.4923  -2.3813  -2.3813   0.6132   0.6132
     0.9449   0.9449   1.1086   1.1086   2.0669   2.0669   2.0858   2.0858
     2.3627   2.3627   3.5011   3.5011   3.7288   3.7288   4.3424   4.3424
     5.7356   5.7356   5.9039   5.9039   6.1216   6.1216   6.1290   6.1290
     7.2391   7.2391   7.7851   7.7852

     occupation numbers 
     1.0000   1.0000   1.0000   1.0000   1.0000   1.0000   1.0000   1.0000
     1.0000   1.0000   1.0000   1.0000   1.0000   1.0000   1.0000   1.0000
     1.0000   1.0000   1.0000   1.0000   1.0000   1.0000   1.0000   1.0000
     1.0000   1.0000   1.0000   1.0000   0.8287   0.8287  -0.0000  -0.0000
    -0.0000  -0.0000  -0.0000  -0.0000  -0.0000  -0.0000  -0.0000  -0.0000
    -0.0000  -0.0000  -0.0000  -0.0000  -0.0000  -0.0000  -0.0000  -0.0000
    -0.0000  -0.0000  -0.0000  -0.0000  -0.0000  -0.0000  -0.0000  -0.0000
    -0.0000  -0.0000  -0.0000  -0.0000

          k = 0.0000 0.1443 0.0000 ( 20065 PWs)   bands (ev):

   -24.6176 -24.6176 -24.5175 -24.5175 -24.4764 -24.4764 -24.4536 -24.4536
   -23.6479 -23.6479 -23.4961 -23.4961 -23.4806 -23.4806 -23.3940 -23.3940
   -23.3422 -23.3422 -23.3243 -23.3243 -12.0477 -12.0477  -5.2855  -5.2855
    -4.1553  -4.1553  -3.6212  -3.6212  -1.9606  -1.9606   0.6670   0.6670
     1.1803   1.1803   1.2294   1.2294   1.7964   1.7964   2.1444   2.1444
     2.4428   2.4428   3.5732   3.5732   3.8198   3.8198   4.7239   4.7239
     5.6276   5.6276   5.7004   5.7004   6.1019   6.1020   6.2017   6.2017
     7.3996   7.3996   7.9221   7.9223

     occupation numbers 
     1.0000   1.0000   1.0000   1.0000   1.0000   1.0000   1.0000   1.0000
     1.0000   1.0000   1.0000   1.0000   1.0000   1.0000   1.0000   1.0000
     1.0000   1.0000   1.0000   1.0000   1.0000   1.0000   1.0000   1.0000
     1.0000   1.0000   1.0000   1.0000  -0.0334  -0.0334  -0.0000  -0.0000
    -0.0000  -0.0000  -0.0000  -0.0000  -0.0000  -0.0000  -0.0000  -0.0000
    -0.0000  -0.0000  -0.0000  -0.0000  -0.0000  -0.0000  -0.0000  -0.0000
    -0.0000  -0.0000  -0.0000  -0.0000  -0.0000  -0.0000  -0.0000  -0.0000
    -0.0000  -0.0000  -0.0000  -0.0000

          k = 0.0000 0.1925 0.0000 ( 20113 PWs)   bands (ev):

   -24.6194 -24.6194 -24.5230 -24.5229 -24.4769 -24.4769 -24.4566 -24.4566
   -23.6500 -23.6500 -23.5010 -23.5010 -23.4684 -23.4684 -23.3994 -23.3994
   -23.3403 -23.3403 -23.3123 -23.3123 -11.9452 -11.9452  -5.8508  -5.8508
    -4.0556  -4.0556  -3.7748  -3.7748  -1.6665  -1.6665   0.8319   0.8319
     1.3150   1.3150   1.4174   1.4174   1.6162   1.6162   2.2506   2.2506
     2.5543   2.5543   3.6719   3.6719   3.9357   3.9357   5.2115   5.2115
     5.4126   5.4126   5.4963   5.4963   6.1618   6.1618   6.3071   6.3071
     7.3148   7.3149   7.7255   7.7256

     occupation numbers 
     1.0000   1.0000   1.0000   1.0000   1.0000   1.0000   1.0000   1.0000
     1.0000   1.0000   1.0000   1.0000   1.0000   1.0000   1.0000   1.0000
     1.0000   1.0000   1.0000   1.0000   1.0000   1.0000   1.0000   1.0000
     1.0000   1.0000   1.0000   1.0000  -0.0040  -0.0040  -0.0000  -0.0000
    -0.0000  -0.0000  -0.0000  -0.0000  -0.0000  -0.0000  -0.0000  -0.0000
    -0.0000  -0.0000  -0.0000  -0.0000  -0.0000  -0.0000  -0.0000  -0.0000
    -0.0000  -0.0000  -0.0000  -0.0000  -0.0000  -0.0000  -0.0000  -0.0000
    -0.0000  -0.0000  -0.0000  -0.0000

          k = 0.0000 0.2406 0.0000 ( 20071 PWs)   bands (ev):

   -24.6210 -24.6210 -24.5302 -24.5302 -24.4778 -24.4778 -24.4583 -24.4583
   -23.6513 -23.6513 -23.5075 -23.5075 -23.4557 -23.4557 -23.4021 -23.4021
   -23.3372 -23.3372 -23.3009 -23.3009 -11.8145 -11.8145  -6.3998  -6.3998
    -3.9915  -3.9915  -3.8735  -3.8735  -1.5223  -1.5223   0.9639   0.9639
     1.2294   1.2294   1.4970   1.4970   2.0249   2.0249   2.3872   2.3872
     2.6972   2.6972   3.7936   3.7936   4.0790   4.0790   5.1661   5.1661
     5.3063   5.3063   5.7767   5.7767   6.2786   6.2786   6.4308   6.4308
     6.7551   6.7552   7.8926   7.8928

     occupation numbers 
     1.0000   1.0000   1.0000   1.0000   1.0000   1.0000   1.0000   1.0000
     1.0000   1.0000   1.0000   1.0000   1.0000   1.0000   1.0000   1.0000
     1.0000   1.0000   1.0000   1.0000   1.0000   1.0000   1.0000   1.0000
     1.0000   1.0000   1.0000   1.0000  -0.0004  -0.0004  -0.0000  -0.0000
    -0.0000  -0.0000  -0.0000  -0.0000  -0.0000  -0.0000  -0.0000  -0.0000
    -0.0000  -0.0000  -0.0000  -0.0000  -0.0000  -0.0000  -0.0000  -0.0000
    -0.0000  -0.0000  -0.0000  -0.0000  -0.0000  -0.0000  -0.0000  -0.0000
    -0.0000  -0.0000  -0.0000  -0.0000

          k = 0.0000 0.2887 0.0000 ( 20087 PWs)   bands (ev):

   -24.6225 -24.6225 -24.5393 -24.5393 -24.4792 -24.4792 -24.4588 -24.4588
   -23.6517 -23.6517 -23.5154 -23.5154 -23.4446 -23.4446 -23.4026 -23.4026
   -23.3325 -23.3325 -23.2907 -23.2907 -11.6568 -11.6568  -6.9269  -6.9269
    -4.1255  -4.1255  -3.7432  -3.7432  -1.4936  -1.4936   0.6070   0.6070
     1.5271   1.5271   1.8145   1.8145   2.4883   2.4883   2.5722   2.5722
     2.8714   2.8714   3.9299   3.9299   4.2509   4.2509   4.9570   4.9570
     5.1369   5.1369   6.0915   6.0915   6.4015   6.4015   6.4492   6.4492
     6.6711   6.6713   7.3616   7.3635

     occupation numbers 
     1.0000   1.0000   1.0000   1.0000   1.0000   1.0000   1.0000   1.0000
     1.0000   1.0000   1.0000   1.0000   1.0000   1.0000   1.0000   1.0000
     1.0000   1.0000   1.0000   1.0000   1.0000   1.0000   1.0000   1.0000
     1.0000   1.0000   1.0000   1.0000  -0.0002  -0.0002  -0.0000  -0.0000
    -0.0000  -0.0000  -0.0000  -0.0000  -0.0000  -0.0000  -0.0000  -0.0000
    -0.0000  -0.0000  -0.0000  -0.0000  -0.0000  -0.0000  -0.0000  -0.0000
    -0.0000  -0.0000  -0.0000  -0.0000  -0.0000  -0.0000  -0.0000  -0.0000
    -0.0000  -0.0000  -0.0000  -0.0000

          k = 0.0000 0.3368 0.0000 ( 20109 PWs)   bands (ev):

   -24.6235 -24.6235 -24.5495 -24.5495 -24.4807 -24.4807 -24.4586 -24.4586
   -23.6510 -23.6510 -23.5241 -23.5241 -23.4358 -23.4358 -23.4016 -23.4016
   -23.3259 -23.3259 -23.2821 -23.2821 -11.4742 -11.4742  -7.4267  -7.4267
    -4.2714  -4.2714  -3.5637  -3.5637  -1.5273  -1.5273   0.2082   0.2082
     1.7739   1.7739   2.3403   2.3403   2.7300   2.7300   3.0469   3.0469
     3.0774   3.0774   4.0595   4.0595   4.4509   4.4509   4.8154   4.8154
     4.9911   4.9911   5.6161   5.6161   6.5205   6.5205   6.7714   6.7715
     6.8749   6.8760   6.9191   6.9192

     occupation numbers 
     1.0000   1.0000   1.0000   1.0000   1.0000   1.0000   1.0000   1.0000
     1.0000   1.0000   1.0000   1.0000   1.0000   1.0000   1.0000   1.0000
     1.0000   1.0000   1.0000   1.0000   1.0000   1.0000   1.0000   1.0000
     1.0000   1.0000   1.0000   1.0000  -0.0004  -0.0004  -0.0000  -0.0000
    -0.0000  -0.0000  -0.0000  -0.0000  -0.0000  -0.0000  -0.0000  -0.0000
    -0.0000  -0.0000  -0.0000  -0.0000  -0.0000  -0.0000  -0.0000  -0.0000
    -0.0000  -0.0000  -0.0000  -0.0000  -0.0000  -0.0000  -0.0000  -0.0000
    -0.0000  -0.0000  -0.0000  -0.0000

          k = 0.0000 0.3849 0.0000 ( 20145 PWs)   bands (ev):

   -24.6236 -24.6236 -24.5601 -24.5601 -24.4820 -24.4820 -24.4580 -24.4580
   -23.6495 -23.6495 -23.5329 -23.5329 -23.4292 -23.4292 -23.4005 -23.4005
   -23.3177 -23.3177 -23.2754 -23.2754 -11.2708 -11.2708  -7.8927  -7.8927
    -4.3993  -4.3993  -3.3632  -3.3632  -1.5844  -1.5844  -0.1821  -0.1821
     2.0168   2.0168   2.9155   2.9155   2.9714   2.9714   3.3136   3.3136
     3.6009   3.6009   4.1402   4.1402   4.6738   4.6739   4.7899   4.7899
     4.8705   4.8705   5.1522   5.1522   6.2406   6.2407   6.3601   6.3602
     6.9134   6.9135   7.0061   7.0061

     occupation numbers 
     1.0000   1.0000   1.0000   1.0000   1.0000   1.0000   1.0000   1.0000
     1.0000   1.0000   1.0000   1.0000   1.0000   1.0000   1.0000   1.0000
     1.0000   1.0000   1.0000   1.0000   1.0000   1.0000   1.0000   1.0000
     1.0000   1.0000   1.0000   1.0000  -0.0012  -0.0012  -0.0000  -0.0000
    -0.0000  -0.0000  -0.0000  -0.0000  -0.0000  -0.0000  -0.0000  -0.0000
    -0.0000  -0.0000  -0.0000  -0.0000  -0.0000  -0.0000  -0.0000  -0.0000
    -0.0000  -0.0000  -0.0000  -0.0000  -0.0000  -0.0000  -0.0000  -0.0000
    -0.0000  -0.0000  -0.0000  -0.0000

          k = 0.0000 0.4330 0.0000 ( 20161 PWs)   bands (ev):

   -24.6229 -24.6229 -24.5703 -24.5703 -24.4830 -24.4830 -24.4572 -24.4572
   -23.6474 -23.6474 -23.5411 -23.5411 -23.4241 -23.4241 -23.3998 -23.3998
   -23.3088 -23.3088 -23.2708 -23.2708 -11.0543 -11.0543  -8.3152  -8.3152
    -4.5030  -4.5030  -3.1520  -3.1520  -1.6421  -1.6421  -0.5467  -0.5467
     2.2806   2.2806   3.1593   3.1593   3.5342   3.5342   3.5818   3.5818
     4.1538   4.1538   4.1654   4.1654   4.7229   4.7229   4.7765   4.7765
     4.8955   4.8955   4.9757   4.9757   5.8294   5.8294   5.8752   5.8752
     6.9942   6.9942   7.2117   7.2125

     occupation numbers 
     1.0000   1.0000   1.0000   1.0000   1.0000   1.0000   1.0000   1.0000
     1.0000   1.0000   1.0000   1.0000   1.0000   1.0000   1.0000   1.0000
     1.0000   1.0000   1.0000   1.0000   1.0000   1.0000   1.0000   1.0000
     1.0000   1.0000   1.0000   1.0000  -0.0028  -0.0028  -0.0000  -0.0000
    -0.0000  -0.0000  -0.0000  -0.0000  -0.0000  -0.0000  -0.0000  -0.0000
    -0.0000  -0.0000  -0.0000  -0.0000  -0.0000  -0.0000  -0.0000  -0.0000
    -0.0000  -0.0000  -0.0000  -0.0000  -0.0000  -0.0000  -0.0000  -0.0000
    -0.0000  -0.0000  -0.0000  -0.0000

          k = 0.0000 0.4811 0.0000 ( 20157 PWs)   bands (ev):

   -24.6214 -24.6214 -24.5790 -24.5790 -24.4836 -24.4836 -24.4566 -24.4566
   -23.6452 -23.6452 -23.5478 -23.5478 -23.4202 -23.4202 -23.3999 -23.3999
   -23.3005 -23.3005 -23.2681 -23.2681 -10.8416 -10.8416  -8.6761  -8.6761
    -4.5792  -4.5792  -2.9476  -2.9476  -1.6880  -1.6880  -0.8646  -0.8646
     2.5678   2.5678   3.3703   3.3703   3.8150   3.8150   3.8859   3.8859
     4.1454   4.1454   4.6342   4.6342   4.7097   4.7097   4.7718   4.7718
     5.0288   5.0288   5.2376   5.2376   5.4336   5.4336   5.5220   5.5220
     6.6919   6.6919   6.7866   6.7866

     occupation numbers 
     1.0000   1.0000   1.0000   1.0000   1.0000   1.0000   1.0000   1.0000
     1.0000   1.0000   1.0000   1.0000   1.0000   1.0000   1.0000   1.0000
     1.0000   1.0000   1.0000   1.0000   1.0000   1.0000   1.0000   1.0000
     1.0000   1.0000   1.0011   1.0011  -0.0053  -0.0053  -0.0000  -0.0000
    -0.0000  -0.0000  -0.0000  -0.0000  -0.0000  -0.0000  -0.0000  -0.0000
    -0.0000  -0.0000  -0.0000  -0.0000  -0.0000  -0.0000  -0.0000  -0.0000
    -0.0000  -0.0000  -0.0000  -0.0000  -0.0000  -0.0000  -0.0000  -0.0000
    -0.0000  -0.0000  -0.0000  -0.0000

          k = 0.0000 0.5292 0.0000 ( 20142 PWs)   bands (ev):

   -24.6196 -24.6196 -24.5854 -24.5854 -24.4839 -24.4839 -24.4561 -24.4561
   -23.6434 -23.6434 -23.5523 -23.5523 -23.4176 -23.4176 -23.4003 -23.4003
   -23.2943 -23.2943 -23.2672 -23.2672 -10.6686 -10.6686  -8.9385  -8.9385
    -4.6257  -4.6257  -2.7847  -2.7847  -1.7153  -1.7153  -1.0988  -1.0988
     2.8711   2.8711   3.5233   3.5233   3.6105   3.6105   4.1804   4.1804
     4.2126   4.2126   4.6673   4.6673   4.9120   4.9120   4.9229   4.9229
     5.1081   5.1081   5.3164   5.3164   5.5468   5.5468   5.5571   5.5571
     6.3319   6.3319   6.3741   6.3741

     occupation numbers 
     1.0000   1.0000   1.0000   1.0000   1.0000   1.0000   1.0000   1.0000
     1.0000   1.0000   1.0000   1.0000   1.0000   1.0000   1.0000   1.0000
     1.0000   1.0000   1.0000   1.0000   1.0000   1.0000   1.0000   1.0000
     1.0000   1.0000   1.0105   1.0105  -0.0075  -0.0075  -0.0000  -0.0000
    -0.0000  -0.0000  -0.0000  -0.0000  -0.0000  -0.0000  -0.0000  -0.0000
    -0.0000  -0.0000  -0.0000  -0.0000  -0.0000  -0.0000  -0.0000  -0.0000
    -0.0000  -0.0000  -0.0000  -0.0000  -0.0000  -0.0000  -0.0000  -0.0000
    -0.0000  -0.0000  -0.0000  -0.0000

          k = 0.0000-0.5774 0.0000 ( 20152 PWs)   bands (ev):

   -24.6188 -24.6188 -24.5878 -24.5878 -24.4840 -24.4840 -24.4560 -24.4560
   -23.6428 -23.6428 -23.5539 -23.5539 -23.4166 -23.4166 -23.4006 -23.4006
   -23.2921 -23.2921 -23.2671 -23.2671 -10.5973 -10.5973  -9.0396  -9.0396
    -4.6413  -4.6413  -2.7189  -2.7189  -1.7235  -1.7235  -1.1897  -1.1897
     3.0932   3.0932   3.3832   3.3832   3.5819   3.5819   4.2294   4.2294
     4.5576   4.5576   4.5810   4.5810   4.6539   4.6539   4.8114   4.8114
     5.2901   5.2901   5.5681   5.5681   5.7017   5.7017   5.8654   5.8654
     6.0270   6.0270   6.1232   6.1233

     occupation numbers 
     1.0000   1.0000   1.0000   1.0000   1.0000   1.0000   1.0000   1.0000
     1.0000   1.0000   1.0000   1.0000   1.0000   1.0000   1.0000   1.0000
     1.0000   1.0000   1.0000   1.0000   1.0000   1.0000   1.0000   1.0000
     1.0000   1.0000   1.0199   1.0199  -0.0083  -0.0083  -0.0000  -0.0000
    -0.0000  -0.0000  -0.0000  -0.0000  -0.0000  -0.0000  -0.0000  -0.0000
    -0.0000  -0.0000  -0.0000  -0.0000  -0.0000  -0.0000  -0.0000  -0.0000
    -0.0000  -0.0000  -0.0000  -0.0000  -0.0000  -0.0000  -0.0000  -0.0000
    -0.0000  -0.0000  -0.0000  -0.0000

          k = 0.0417 0.0722 0.0000 ( 20017 PWs)   bands (ev):

   -24.6158 -24.6158 -24.5131 -24.5131 -24.4765 -24.4765 -24.4497 -24.4497
   -23.6449 -23.6449 -23.4959 -23.4959 -23.4899 -23.4899 -23.3842 -23.3842
   -23.3439 -23.3439 -23.3391 -23.3391 -12.1360 -12.1360  -4.5565  -4.5565
    -4.2445  -4.2445  -3.4697  -3.4697  -2.5037  -2.5037   0.6004   0.6004
     0.9016   0.9016   1.0883   1.0883   2.0529   2.0529   2.1484   2.1484
     2.3465   2.3465   3.4866   3.4866   3.7084   3.7084   4.2633   4.2633
     5.7268   5.7269   5.9496   5.9496   6.1102   6.1102   6.1751   6.1752
     7.1952   7.1953   7.7322   7.7323

     occupation numbers 
     1.0000   1.0000   1.0000   1.0000   1.0000   1.0000   1.0000   1.0000
     1.0000   1.0000   1.0000   1.0000   1.0000   1.0000   1.0000   1.0000
     1.0000   1.0000   1.0000   1.0000   1.0000   1.0000   1.0000   1.0000
     1.0000   1.0000   1.0000   1.0000   1.0075   1.0075  -0.0000  -0.0000
    -0.0000  -0.0000  -0.0000  -0.0000  -0.0000  -0.0000  -0.0000  -0.0000
    -0.0000  -0.0000  -0.0000  -0.0000  -0.0000  -0.0000  -0.0000  -0.0000
    -0.0000  -0.0000  -0.0000  -0.0000  -0.0000  -0.0000  -0.0000  -0.0000
    -0.0000  -0.0000  -0.0000  -0.0000

          k = 0.0417 0.1203 0.0000 ( 20039 PWs)   bands (ev):

   -24.6170 -24.6170 -24.5160 -24.5160 -24.4764 -24.4764 -24.4524 -24.4524
   -23.6470 -23.6470 -23.4950 -23.4950 -23.4844 -23.4844 -23.3915 -23.3915
   -23.3426 -23.3426 -23.3286 -23.3286 -12.0771 -12.0771  -5.0797  -5.0797
    -4.1850  -4.1850  -3.5834  -3.5834  -2.0809  -2.0809   0.6053   0.6053
     1.1208   1.1208   1.1735   1.1735   1.9070   1.9070   2.1137   2.1137
     2.4108   2.4108   3.5442   3.5442   3.7849   3.7849   4.5739   4.5739
     5.5488   5.5488   5.8946   5.8946   6.1689   6.1689   6.1784   6.1784
     7.1923   7.1923   8.0735   8.0738

     occupation numbers 
     1.0000   1.0000   1.0000   1.0000   1.0000   1.0000   1.0000   1.0000
     1.0000   1.0000   1.0000   1.0000   1.0000   1.0000   1.0000   1.0000
     1.0000   1.0000   1.0000   1.0000   1.0000   1.0000   1.0000   1.0000
     1.0000   1.0000   1.0000   1.0000   0.0492   0.0492  -0.0000  -0.0000
    -0.0000  -0.0000  -0.0000  -0.0000  -0.0000  -0.0000  -0.0000  -0.0000
    -0.0000  -0.0000  -0.0000  -0.0000  -0.0000  -0.0000  -0.0000  -0.0000
    -0.0000  -0.0000  -0.0000  -0.0000  -0.0000  -0.0000  -0.0000  -0.0000
    -0.0000  -0.0000  -0.0000  -0.0000

          k = 0.0417 0.1684 0.0000 ( 20081 PWs)   bands (ev):

   -24.6186 -24.6186 -24.5205 -24.5205 -24.4766 -24.4766 -24.4555 -24.4555
   -23.6492 -23.6492 -23.4989 -23.4989 -23.4732 -23.4732 -23.3976 -23.3976
   -23.3411 -23.3411 -23.3170 -23.3170 -11.9890 -11.9890  -5.6245  -5.6245
    -4.0980  -4.0980  -3.7357  -3.7357  -1.7219  -1.7219   0.6770   0.6770
     1.2603   1.2603   1.4485   1.4485   1.6266   1.6266   2.2046   2.2046
     2.5066   2.5066   3.6289   3.6289   3.8868   3.8868   5.0078   5.0078
     5.2795   5.2795   5.8518   5.8518   6.1622   6.1623   6.2623   6.2623
     7.3986   7.3987   7.6106   7.6106

     occupation numbers 
     1.0000   1.0000   1.0000   1.0000   1.0000   1.0000   1.0000   1.0000
     1.0000   1.0000   1.0000   1.0000   1.0000   1.0000   1.0000   1.0000
     1.0000   1.0000   1.0000   1.0000   1.0000   1.0000   1.0000   1.0000
     1.0000   1.0000   1.0000   1.0000  -0.0081  -0.0081  -0.0000  -0.0000
    -0.0000  -0.0000  -0.0000  -0.0000  -0.0000  -0.0000  -0.0000  -0.0000
    -0.0000  -0.0000  -0.0000  -0.0000  -0.0000  -0.0000  -0.0000  -0.0000
    -0.0000  -0.0000  -0.0000  -0.0000  -0.0000  -0.0000  -0.0000  -0.0000
    -0.0000  -0.0000  -0.0000  -0.0000

          k = 0.0417 0.2165 0.0000 ( 20075 PWs)   bands (ev):

   -24.6204 -24.6204 -24.5269 -24.5269 -24.4774 -24.4774 -24.4576 -24.4576
   -23.6508 -23.6508 -23.5046 -23.5046 -23.4607 -23.4607 -23.4014 -23.4014
   -23.3385 -23.3385 -23.3055 -23.3055 -11.8724 -11.8724  -6.1665  -6.1665
    -4.0056  -4.0056  -3.8818  -3.8818  -1.4932  -1.4932   0.8695   0.8695
     1.2231   1.2231   1.4008   1.4008   1.9327   1.9327   2.3260   2.3260
     2.6337   2.6337   3.7371   3.7371   4.0157   4.0157   5.0132   5.0132
     5.5304   5.5304   5.7169   5.7169   6.2333   6.2333   6.3808   6.3808
     7.0275   7.0276   7.7431   7.7432

     occupation numbers 
     1.0000   1.0000   1.0000   1.0000   1.0000   1.0000   1.0000   1.0000
     1.0000   1.0000   1.0000   1.0000   1.0000   1.0000   1.0000   1.0000
     1.0000   1.0000   1.0000   1.0000   1.0000   1.0000   1.0000   1.0000
     1.0000   1.0000   1.0000   1.0000  -0.0002  -0.0002  -0.0000  -0.0000
    -0.0000  -0.0000  -0.0000  -0.0000  -0.0000  -0.0000  -0.0000  -0.0000
    -0.0000  -0.0000  -0.0000  -0.0000  -0.0000  -0.0000  -0.0000  -0.0000
    -0.0000  -0.0000  -0.0000  -0.0000  -0.0000  -0.0000  -0.0000  -0.0000
    -0.0000  -0.0000  -0.0000  -0.0000

          k = 0.0417 0.2646 0.0000 ( 20107 PWs)   bands (ev):

   -24.6220 -24.6220 -24.5353 -24.5353 -24.4787 -24.4787 -24.4586 -24.4586
   -23.6516 -23.6516 -23.5120 -23.5120 -23.4490 -23.4490 -23.4030 -23.4030
   -23.3347 -23.3347 -23.2949 -23.2949 -11.7280 -11.7280  -6.6945  -6.6945
    -4.1028  -4.1028  -3.8117  -3.8117  -1.4015  -1.4015   0.7765   0.7765
     1.2828   1.2828   1.5845   1.5845   2.4048   2.4048   2.4929   2.4929
     2.7922   2.7922   3.8605   3.8605   4.1730   4.1730   4.7874   4.7874
     5.5427   5.5427   6.0811   6.0812   6.3638   6.3638   6.4232   6.4232
     6.6097   6.6098   7.6401   7.6403

     occupation numbers 
     1.0000   1.0000   1.0000   1.0000   1.0000   1.0000   1.0000   1.0000
     1.0000   1.0000   1.0000   1.0000   1.0000   1.0000   1.0000   1.0000
     1.0000   1.0000   1.0000   1.0000   1.0000   1.0000   1.0000   1.0000
     1.0000   1.0000   1.0000   1.0000  -0.0000  -0.0000  -0.0000  -0.0000
    -0.0000  -0.0000  -0.0000  -0.0000  -0.0000  -0.0000  -0.0000  -0.0000
    -0.0000  -0.0000  -0.0000  -0.0000  -0.0000  -0.0000  -0.0000  -0.0000
    -0.0000  -0.0000  -0.0000  -0.0000  -0.0000  -0.0000  -0.0000  -0.0000
    -0.0000  -0.0000  -0.0000  -0.0000

          k = 0.0417 0.3127 0.0000 ( 20105 PWs)   bands (ev):

   -24.6232 -24.6232 -24.5449 -24.5449 -24.4802 -24.4802 -24.4586 -24.4586
   -23.6514 -23.6514 -23.5204 -23.5204 -23.4392 -23.4392 -23.4026 -23.4026
   -23.3290 -23.3290 -23.2855 -23.2855 -11.5576 -11.5576  -7.2011  -7.2011
    -4.2597  -4.2597  -3.6459  -3.6459  -1.4024  -1.4024   0.3905   0.3905
     1.6356   1.6356   1.9052   1.9052   2.6398   2.6398   2.9676   2.9676
     2.9880   2.9880   3.9759   3.9759   4.3590   4.3590   4.6327   4.6327
     5.3814   5.3814   5.8721   5.8721   6.4972   6.4972   6.6500   6.6501
     6.8446   6.8447   7.1301   7.1341

     occupation numbers 
     1.0000   1.0000   1.0000   1.0000   1.0000   1.0000   1.0000   1.0000
     1.0000   1.0000   1.0000   1.0000   1.0000   1.0000   1.0000   1.0000
     1.0000   1.0000   1.0000   1.0000   1.0000   1.0000   1.0000   1.0000
     1.0000   1.0000   1.0000   1.0000  -0.0000  -0.0000  -0.0000  -0.0000
    -0.0000  -0.0000  -0.0000  -0.0000  -0.0000  -0.0000  -0.0000  -0.0000
    -0.0000  -0.0000  -0.0000  -0.0000  -0.0000  -0.0000  -0.0000  -0.0000
    -0.0000  -0.0000  -0.0000  -0.0000  -0.0000  -0.0000  -0.0000  -0.0000
    -0.0000  -0.0000  -0.0000  -0.0000

          k = 0.0417 0.3608 0.0000 ( 20127 PWs)   bands (ev):

   -24.6238 -24.6238 -24.5554 -24.5554 -24.4816 -24.4816 -24.4580 -24.4580
   -23.6502 -23.6502 -23.5292 -23.5292 -23.4319 -23.4319 -23.4012 -23.4012
   -23.3215 -23.3215 -23.2778 -23.2778 -11.3639 -11.3639  -7.6797  -7.6797
    -4.4023  -4.4023  -3.4543  -3.4543  -1.4475  -1.4475  -0.0021  -0.0021
     1.8986   1.8986   2.4262   2.4262   2.8390   2.8391   3.2024   3.2024
     3.5443   3.5443   4.0329   4.0329   4.5720   4.5720   4.6046   4.6046
     5.2398   5.2398   5.3877   5.3877   6.4447   6.4447   6.6256   6.6256
     6.8730   6.8730   6.9021   6.9022

     occupation numbers 
     1.0000   1.0000   1.0000   1.0000   1.0000   1.0000   1.0000   1.0000
     1.0000   1.0000   1.0000   1.0000   1.0000   1.0000   1.0000   1.0000
     1.0000   1.0000   1.0000   1.0000   1.0000   1.0000   1.0000   1.0000
     1.0000   1.0000   1.0000   1.0000  -0.0001  -0.0001  -0.0000  -0.0000
    -0.0000  -0.0000  -0.0000  -0.0000  -0.0000  -0.0000  -0.0000  -0.0000
    -0.0000  -0.0000  -0.0000  -0.0000  -0.0000  -0.0000  -0.0000  -0.0000
    -0.0000  -0.0000  -0.0000  -0.0000  -0.0000  -0.0000  -0.0000  -0.0000
    -0.0000  -0.0000  -0.0000  -0.0000

          k = 0.0417 0.4090 0.0000 ( 20135 PWs)   bands (ev):

   -24.6235 -24.6235 -24.5658 -24.5658 -24.4827 -24.4827 -24.4573 -24.4573
   -23.6482 -23.6482 -23.5377 -23.5377 -23.4264 -23.4264 -23.4000 -23.4000
   -23.3130 -23.3130 -23.2720 -23.2720 -11.1525 -11.1525  -8.1218  -8.1218
    -4.5221  -4.5221  -3.2466  -3.2466  -1.5049  -1.5049  -0.3785  -0.3785
     2.1553   2.1553   2.9951   2.9951   3.0668   3.0668   3.4544   3.4544
     4.0097   4.0097   4.1219   4.1219   4.7164   4.7164   4.7865   4.7865
     4.9879   4.9879   5.1243   5.1243   6.0550   6.0550   6.1249   6.1250
     6.9954   6.9956   7.1262   7.1265

     occupation numbers 
     1.0000   1.0000   1.0000   1.0000   1.0000   1.0000   1.0000   1.0000
     1.0000   1.0000   1.0000   1.0000   1.0000   1.0000   1.0000   1.0000
     1.0000   1.0000   1.0000   1.0000   1.0000   1.0000   1.0000   1.0000
     1.0000   1.0000   1.0000   1.0000  -0.0003  -0.0003  -0.0000  -0.0000
    -0.0000  -0.0000  -0.0000  -0.0000  -0.0000  -0.0000  -0.0000  -0.0000
    -0.0000  -0.0000  -0.0000  -0.0000  -0.0000  -0.0000  -0.0000  -0.0000
    -0.0000  -0.0000  -0.0000  -0.0000  -0.0000  -0.0000  -0.0000  -0.0000
    -0.0000  -0.0000  -0.0000  -0.0000

          k = 0.0417 0.4571 0.0000 ( 20146 PWs)   bands (ev):

   -24.6223 -24.6223 -24.5753 -24.5753 -24.4835 -24.4835 -24.4565 -24.4565
   -23.6459 -23.6459 -23.5453 -23.5453 -23.4222 -23.4222 -23.3996 -23.3996
   -23.3045 -23.3045 -23.2682 -23.2682 -10.9347 -10.9347  -8.5143  -8.5143
    -4.6148  -4.6148  -3.0352  -3.0352  -1.5572  -1.5572  -0.7209  -0.7209
     2.4321   2.4321   3.2408   3.2408   3.5691   3.5691   3.7357   3.7357
     4.0061   4.0061   4.3945   4.3945   4.8455   4.8455   4.9000   4.9000
     5.0473   5.0473   5.1155   5.1155   5.6601   5.6601   5.6924   5.6924
     6.8840   6.8840   7.0042   7.0044

     occupation numbers 
     1.0000   1.0000   1.0000   1.0000   1.0000   1.0000   1.0000   1.0000
     1.0000   1.0000   1.0000   1.0000   1.0000   1.0000   1.0000   1.0000
     1.0000   1.0000   1.0000   1.0000   1.0000   1.0000   1.0000   1.0000
     1.0000   1.0000   1.0002   1.0002  -0.0007  -0.0007  -0.0000  -0.0000
    -0.0000  -0.0000  -0.0000  -0.0000  -0.0000  -0.0000  -0.0000  -0.0000
    -0.0000  -0.0000  -0.0000  -0.0000  -0.0000  -0.0000  -0.0000  -0.0000
    -0.0000  -0.0000  -0.0000  -0.0000  -0.0000  -0.0000  -0.0000  -0.0000
    -0.0000  -0.0000  -0.0000  -0.0000

          k = 0.0417 0.5052 0.0000 ( 20148 PWs)   bands (ev):

   -24.6207 -24.6207 -24.5829 -24.5829 -24.4839 -24.4839 -24.4560 -24.4560
   -23.6438 -23.6438 -23.5510 -23.5510 -23.4192 -23.4192 -23.3998 -23.3998
   -23.2974 -23.2974 -23.2662 -23.2662 -10.7350 -10.7350  -8.8312  -8.8312
    -4.6778  -4.6778  -2.8447  -2.8447  -1.5945  -1.5945  -1.0016  -1.0016
     2.7295   2.7295   3.3887   3.3887   3.7240   3.7240   4.0513   4.0513
     4.0657   4.0657   4.5021   4.5021   4.8294   4.8295   5.0412   5.0412
     5.1744   5.1744   5.3785   5.3786   5.4634   5.4634   5.5449   5.5449
     6.5219   6.5219   6.5880   6.5881

     occupation numbers 
     1.0000   1.0000   1.0000   1.0000   1.0000   1.0000   1.0000   1.0000
     1.0000   1.0000   1.0000   1.0000   1.0000   1.0000   1.0000   1.0000
     1.0000   1.0000   1.0000   1.0000   1.0000   1.0000   1.0000   1.0000
     1.0000   1.0000   1.0051   1.0051  -0.0014  -0.0014  -0.0000  -0.0000
    -0.0000  -0.0000  -0.0000  -0.0000  -0.0000  -0.0000  -0.0000  -0.0000
    -0.0000  -0.0000  -0.0000  -0.0000  -0.0000  -0.0000  -0.0000  -0.0000
    -0.0000  -0.0000  -0.0000  -0.0000  -0.0000  -0.0000  -0.0000  -0.0000
    -0.0000  -0.0000  -0.0000  -0.0000

          k = 0.0417 0.5533 0.0000 ( 20150 PWs)   bands (ev):

   -24.6193 -24.6193 -24.5874 -24.5874 -24.4842 -24.4842 -24.4557 -24.4557
   -23.6425 -23.6425 -23.5541 -23.5541 -23.4175 -23.4175 -23.4001 -23.4001
   -23.2933 -23.2933 -23.2656 -23.2656 -10.6035 -10.6035  -9.0216  -9.0216
    -4.7097  -4.7097  -2.7218  -2.7218  -1.6126  -1.6126  -1.1718  -1.1718
     3.0245   3.0245   3.4485   3.4485   3.4771   3.4771   4.2026   4.2026
     4.3984   4.3984   4.6448   4.6448   4.7436   4.7436   4.9189   4.9189
     5.0269   5.0269   5.6466   5.6466   5.6961   5.6961   5.8259   5.8259
     6.2089   6.2089   6.2277   6.2278

     occupation numbers 
     1.0000   1.0000   1.0000   1.0000   1.0000   1.0000   1.0000   1.0000
     1.0000   1.0000   1.0000   1.0000   1.0000   1.0000   1.0000   1.0000
     1.0000   1.0000   1.0000   1.0000   1.0000   1.0000   1.0000   1.0000
     1.0000   1.0000   1.0194   1.0194  -0.0018  -0.0018  -0.0000  -0.0000
    -0.0000  -0.0000  -0.0000  -0.0000  -0.0000  -0.0000  -0.0000  -0.0000
    -0.0000  -0.0000  -0.0000  -0.0000  -0.0000  -0.0000  -0.0000  -0.0000
    -0.0000  -0.0000  -0.0000  -0.0000  -0.0000  -0.0000  -0.0000  -0.0000
    -0.0000  -0.0000  -0.0000  -0.0000

          k = 0.0833 0.1443 0.0000 ( 20061 PWs)   bands (ev):

   -24.6184 -24.6184 -24.5197 -24.5197 -24.4766 -24.4766 -24.4550 -24.4550
   -23.6489 -23.6489 -23.4982 -23.4982 -23.4749 -23.4749 -23.3969 -23.3969
   -23.3412 -23.3412 -23.3187 -23.3187 -12.0037 -12.0037  -5.5396  -5.5396
    -4.1129  -4.1129  -3.7352  -3.7352  -1.7242  -1.7242   0.5906   0.5906
     1.2416   1.2416   1.4493   1.4493   1.6682   1.6682   2.1890   2.1890
     2.4906   2.4906   3.6139   3.6139   3.8702   3.8702   4.9365   4.9365
     5.2194   5.2194   5.9763   5.9763   6.2463   6.2463   6.2738   6.2738
     7.1536   7.1536   7.7944   7.7945

     occupation numbers 
     1.0000   1.0000   1.0000   1.0000   1.0000   1.0000   1.0000   1.0000
     1.0000   1.0000   1.0000   1.0000   1.0000   1.0000   1.0000   1.0000
     1.0000   1.0000   1.0000   1.0000   1.0000   1.0000   1.0000   1.0000
     1.0000   1.0000   1.0000   1.0000  -0.0084  -0.0084  -0.0000  -0.0000
    -0.0000  -0.0000  -0.0000  -0.0000  -0.0000  -0.0000  -0.0000  -0.0000
    -0.0000  -0.0000  -0.0000  -0.0000  -0.0000  -0.0000  -0.0000  -0.0000
    -0.0000  -0.0000  -0.0000  -0.0000  -0.0000  -0.0000  -0.0000  -0.0000
    -0.0000  -0.0000  -0.0000  -0.0000

          k = 0.0833 0.1925 0.0000 ( 20087 PWs)   bands (ev):

   -24.6200 -24.6200 -24.5254 -24.5254 -24.4773 -24.4773 -24.4571 -24.4571
   -23.6505 -23.6505 -23.5034 -23.5034 -23.4634 -23.4634 -23.4011 -23.4011
   -23.3390 -23.3390 -23.3081 -23.3081 -11.9014 -11.9014  -6.0326  -6.0326
    -4.0324  -4.0324  -3.8984  -3.8984  -1.4106  -1.4106   0.6468   0.6468
     1.2936   1.2936   1.3588   1.3588   1.9432   1.9432   2.2950   2.2950
     2.6019   2.6019   3.7058   3.7058   3.9837   3.9837   4.9000   4.9000
     5.4013   5.4013   6.0464   6.0464   6.3001   6.3001   6.3529   6.3529
     7.2814   7.2814   7.3083   7.3084

     occupation numbers 
     1.0000   1.0000   1.0000   1.0000   1.0000   1.0000   1.0000   1.0000
     1.0000   1.0000   1.0000   1.0000   1.0000   1.0000   1.0000   1.0000
     1.0000   1.0000   1.0000   1.0000   1.0000   1.0000   1.0000   1.0000
     1.0000   1.0000   1.0000   1.0000  -0.0000  -0.0000  -0.0000  -0.0000
    -0.0000  -0.0000  -0.0000  -0.0000  -0.0000  -0.0000  -0.0000  -0.0000
    -0.0000  -0.0000  -0.0000  -0.0000  -0.0000  -0.0000  -0.0000  -0.0000
    -0.0000  -0.0000  -0.0000  -0.0000  -0.0000  -0.0000  -0.0000  -0.0000
    -0.0000  -0.0000  -0.0000  -0.0000

          k = 0.0833 0.2406 0.0000 ( 20121 PWs)   bands (ev):

   -24.6217 -24.6217 -24.5329 -24.5329 -24.4785 -24.4785 -24.4582 -24.4582
   -23.6515 -23.6515 -23.5101 -23.5101 -23.4519 -23.4519 -23.4034 -23.4034
   -23.3356 -23.3356 -23.2976 -23.2976 -11.7709 -11.7709  -6.5323  -6.5323
    -4.1397  -4.1397  -3.8536  -3.8536  -1.2098  -1.2098   0.7934   0.7934
     0.9940   0.9940   1.5028   1.5028   2.3982   2.3982   2.4866   2.4866
     2.7446   2.7446   3.8081   3.8081   4.1260   4.1260   4.6342   4.6342
     5.9165   5.9165   6.0256   6.0257   6.3467   6.3467   6.4771   6.4771
     6.7628   6.7628   7.6125   7.6213

     occupation numbers 
     1.0000   1.0000   1.0000   1.0000   1.0000   1.0000   1.0000   1.0000
     1.0000   1.0000   1.0000   1.0000   1.0000   1.0000   1.0000   1.0000
     1.0000   1.0000   1.0000   1.0000   1.0000   1.0000   1.0000   1.0000
     1.0000   1.0000   1.0000   1.0000  -0.0000  -0.0000  -0.0000  -0.0000
    -0.0000  -0.0000  -0.0000  -0.0000  -0.0000  -0.0000  -0.0000  -0.0000
    -0.0000  -0.0000  -0.0000  -0.0000  -0.0000  -0.0000  -0.0000  -0.0000
    -0.0000  -0.0000  -0.0000  -0.0000  -0.0000  -0.0000  -0.0000  -0.0000
    -0.0000  -0.0000  -0.0000  -0.0000

          k = 0.0833 0.2887 0.0000 ( 20106 PWs)   bands (ev):

   -24.6230 -24.6230 -24.5419 -24.5419 -24.4800 -24.4800 -24.4582 -24.4582
   -23.6514 -23.6514 -23.5179 -23.5179 -23.4417 -23.4417 -23.4037 -23.4037
   -23.3306 -23.3306 -23.2879 -23.2879 -11.6135 -11.6135  -7.0244  -7.0244
    -4.3203  -4.3203  -3.7009  -3.7009  -1.1338  -1.1338   0.5268   0.5268
     1.2375   1.2375   1.6835   1.6835   2.5756   2.5756   2.9177   2.9177
     3.0365   3.0365   3.8845   3.8845   4.2972   4.2972   4.4680   4.4680
     5.8883   5.8883   6.1361   6.1361   6.4567   6.4568   6.5218   6.5219
     6.7040   6.7041   7.3897   7.3990

     occupation numbers 
     1.0000   1.0000   1.0000   1.0000   1.0000   1.0000   1.0000   1.0000
     1.0000   1.0000   1.0000   1.0000   1.0000   1.0000   1.0000   1.0000
     1.0000   1.0000   1.0000   1.0000   1.0000   1.0000   1.0000   1.0000
     1.0000   1.0000   1.0000   1.0000  -0.0000  -0.0000  -0.0000  -0.0000
    -0.0000  -0.0000  -0.0000  -0.0000  -0.0000  -0.0000  -0.0000  -0.0000
    -0.0000  -0.0000  -0.0000  -0.0000  -0.0000  -0.0000  -0.0000  -0.0000
    -0.0000  -0.0000  -0.0000  -0.0000  -0.0000  -0.0000  -0.0000  -0.0000
    -0.0000  -0.0000  -0.0000  -0.0000

          k = 0.0833 0.3368 0.0000 ( 20114 PWs)   bands (ev):

   -24.6239 -24.6239 -24.5519 -24.5519 -24.4815 -24.4815 -24.4577 -24.4577
   -23.6504 -23.6504 -23.5266 -23.5266 -23.4340 -23.4340 -23.4025 -23.4025
   -23.3241 -23.3241 -23.2794 -23.2794 -11.4310 -11.4310  -7.4989  -7.4989
    -4.4875  -4.4875  -3.5198  -3.5198  -1.1406  -1.1406   0.1478   0.1478
     1.6768   1.6768   1.9244   1.9244   2.7538   2.7538   3.1234   3.1234
     3.6335   3.6335   3.8740   3.8740   4.4714   4.4714   4.4970   4.4970
     5.6540   5.6540   5.7426   5.7426   6.5617   6.5617   6.8141   6.8141
     6.9153   6.9154   6.9634   6.9635

     occupation numbers 
     1.0000   1.0000   1.0000   1.0000   1.0000   1.0000   1.0000   1.0000
     1.0000   1.0000   1.0000   1.0000   1.0000   1.0000   1.0000   1.0000
     1.0000   1.0000   1.0000   1.0000   1.0000   1.0000   1.0000   1.0000
     1.0000   1.0000   1.0000   1.0000  -0.0000  -0.0000  -0.0000  -0.0000
    -0.0000  -0.0000  -0.0000  -0.0000  -0.0000  -0.0000  -0.0000  -0.0000
    -0.0000  -0.0000  -0.0000  -0.0000  -0.0000  -0.0000  -0.0000  -0.0000
    -0.0000  -0.0000  -0.0000  -0.0000  -0.0000  -0.0000  -0.0000  -0.0000
    -0.0000  -0.0000  -0.0000  -0.0000

          k = 0.0833 0.3849 0.0000 ( 20126 PWs)   bands (ev):

   -24.6240 -24.6240 -24.5623 -24.5623 -24.4827 -24.4827 -24.4568 -24.4568
   -23.6485 -23.6485 -23.5353 -23.5353 -23.4283 -23.4283 -23.4009 -23.4009
   -23.3164 -23.3164 -23.2725 -23.2725 -11.2275 -11.2275  -7.9470  -7.9470
    -4.6311  -4.6311  -3.3185  -3.3185  -1.1844  -1.1844  -0.2273  -0.2273
     2.0372   2.0372   2.3487   2.3487   2.9376   2.9376   3.3597   3.3597
     3.8040   3.8040   4.2343   4.2343   4.6205   4.6205   4.7202   4.7202
     5.2079   5.2079   5.5886   5.5886   6.3238   6.3239   6.4044   6.4044
     6.9388   6.9389   6.9736   6.9736

     occupation numbers 
     1.0000   1.0000   1.0000   1.0000   1.0000   1.0000   1.0000   1.0000
     1.0000   1.0000   1.0000   1.0000   1.0000   1.0000   1.0000   1.0000
     1.0000   1.0000   1.0000   1.0000   1.0000   1.0000   1.0000   1.0000
     1.0000   1.0000   1.0000   1.0000  -0.0000  -0.0000  -0.0000  -0.0000
    -0.0000  -0.0000  -0.0000  -0.0000  -0.0000  -0.0000  -0.0000  -0.0000
    -0.0000  -0.0000  -0.0000  -0.0000  -0.0000  -0.0000  -0.0000  -0.0000
    -0.0000  -0.0000  -0.0000  -0.0000  -0.0000  -0.0000  -0.0000  -0.0000
    -0.0000  -0.0000  -0.0000  -0.0000

          k = 0.0833 0.4330 0.0000 ( 20149 PWs)   bands (ev):

   -24.6234 -24.6234 -24.5721 -24.5721 -24.4836 -24.4836 -24.4560 -24.4560
   -23.6462 -23.6462 -23.5435 -23.5435 -23.4243 -23.4243 -23.3996 -23.3996
   -23.3083 -23.3083 -23.2673 -23.2673 -11.0104 -11.0104  -8.3574  -8.3574
    -4.7463  -4.7463  -3.1060  -3.1060  -1.2369  -1.2369  -0.5802  -0.5802
     2.3201   2.3201   2.9037   2.9037   3.1005   3.1005   3.6266   3.6266
     3.7893   3.7893   4.5286   4.5286   4.8308   4.8308   4.9668   4.9668
     5.1069   5.1069   5.4073   5.4073   5.9231   5.9231   5.9822   5.9822
     6.8319   6.8319   7.0396   7.0397

     occupation numbers 
     1.0000   1.0000   1.0000   1.0000   1.0000   1.0000   1.0000   1.0000
     1.0000   1.0000   1.0000   1.0000   1.0000   1.0000   1.0000   1.0000
     1.0000   1.0000   1.0000   1.0000   1.0000   1.0000   1.0000   1.0000
     1.0000   1.0000   1.0001   1.0001  -0.0000  -0.0000  -0.0000  -0.0000
    -0.0000  -0.0000  -0.0000  -0.0000  -0.0000  -0.0000  -0.0000  -0.0000
    -0.0000  -0.0000  -0.0000  -0.0000  -0.0000  -0.0000  -0.0000  -0.0000
    -0.0000  -0.0000  -0.0000  -0.0000  -0.0000  -0.0000  -0.0000  -0.0000
    -0.0000  -0.0000  -0.0000  -0.0000

          k = 0.0833 0.4811 0.0000 ( 20151 PWs)   bands (ev):

   -24.6220 -24.6220 -24.5805 -24.5805 -24.4842 -24.4842 -24.4553 -24.4553
   -23.6437 -23.6437 -23.5502 -23.5502 -23.4214 -23.4214 -23.3990 -23.3990
   -23.3012 -23.3012 -23.2639 -23.2639 -10.7960 -10.7960  -8.7115  -8.7115
    -4.8303  -4.8303  -2.8988  -2.8988  -1.2841  -1.2841  -0.8880  -0.8880
     2.6108   2.6108   3.1715   3.1715   3.4528   3.4528   3.8927   3.8927
     3.9222   3.9222   4.2659   4.2659   5.0602   5.0602   5.1391   5.1391
     5.2710   5.2710   5.4119   5.4120   5.6465   5.6465   5.7779   5.7779
     6.6567   6.6567   6.7531   6.7532

     occupation numbers 
     1.0000   1.0000   1.0000   1.0000   1.0000   1.0000   1.0000   1.0000
     1.0000   1.0000   1.0000   1.0000   1.0000   1.0000   1.0000   1.0000
     1.0000   1.0000   1.0000   1.0000   1.0000   1.0000   1.0000   1.0000
     1.0000   1.0000   1.0024   1.0024  -0.0000  -0.0000  -0.0000  -0.0000
    -0.0000  -0.0000  -0.0000  -0.0000  -0.0000  -0.0000  -0.0000  -0.0000
    -0.0000  -0.0000  -0.0000  -0.0000  -0.0000  -0.0000  -0.0000  -0.0000
    -0.0000  -0.0000  -0.0000  -0.0000  -0.0000  -0.0000  -0.0000  -0.0000
    -0.0000  -0.0000  -0.0000  -0.0000

          k = 0.0833 0.5292 0.0000 ( 20157 PWs)   bands (ev):

   -24.6205 -24.6205 -24.5866 -24.5866 -24.4845 -24.4845 -24.4548 -24.4548
   -23.6418 -23.6418 -23.5548 -23.5548 -23.4196 -23.4196 -23.3988 -23.3988
   -23.2962 -23.2962 -23.2621 -23.2621 -10.6200 -10.6200  -8.9719  -8.9719
    -4.8813  -4.8813  -2.7317  -2.7317  -1.3216  -1.3216  -1.1100  -1.1100
     2.9129   2.9129   3.1985   3.1985   3.5922   3.5922   4.0969   4.0969
     4.2524   4.2524   4.2985   4.2985   4.8118   4.8118   5.0229   5.0229
     5.2885   5.2885   5.5579   5.5579   5.7048   5.7048   5.9840   5.9840
     6.3898   6.3899   6.4220   6.4220

     occupation numbers 
     1.0000   1.0000   1.0000   1.0000   1.0000   1.0000   1.0000   1.0000
     1.0000   1.0000   1.0000   1.0000   1.0000   1.0000   1.0000   1.0000
     1.0000   1.0000   1.0000   1.0000   1.0000   1.0000   1.0000   1.0000
     1.0000   1.0000   1.0178   1.0178  -0.0000  -0.0000  -0.0000  -0.0000
    -0.0000  -0.0000  -0.0000  -0.0000  -0.0000  -0.0000  -0.0000  -0.0000
    -0.0000  -0.0000  -0.0000  -0.0000  -0.0000  -0.0000  -0.0000  -0.0000
    -0.0000  -0.0000  -0.0000  -0.0000  -0.0000  -0.0000  -0.0000  -0.0000
    -0.0000  -0.0000  -0.0000  -0.0000

          k = 0.0833 0.5774 0.0000 ( 20154 PWs)   bands (ev):

   -24.6197 -24.6197 -24.5888 -24.5888 -24.4846 -24.4846 -24.4547 -24.4547
   -23.6410 -23.6410 -23.5564 -23.5564 -23.4190 -23.4190 -23.3988 -23.3988
   -23.2944 -23.2944 -23.2616 -23.2616 -10.5468 -10.5468  -9.0734  -9.0734
    -4.8984  -4.8984  -2.6632  -2.6632  -1.3416  -1.3416  -1.1898  -1.1898
     3.1256   3.1256   3.2075   3.2075   3.4145   3.4145   4.2702   4.2702
     4.4784   4.4784   4.5981   4.5981   4.6216   4.6216   4.6494   4.6494
     5.3718   5.3718   5.6937   5.6937   5.7634   5.7634   5.9296   5.9296
     6.2167   6.2167   6.2432   6.2432

     occupation numbers 
     1.0000   1.0000   1.0000   1.0000   1.0000   1.0000   1.0000   1.0000
     1.0000   1.0000   1.0000   1.0000   1.0000   1.0000   1.0000   1.0000
     1.0000   1.0000   1.0000   1.0000   1.0000   1.0000   1.0000   1.0000
     1.0000   1.0000   1.0292   1.0292  -0.0000  -0.0000  -0.0000  -0.0000
    -0.0000  -0.0000  -0.0000  -0.0000  -0.0000  -0.0000  -0.0000  -0.0000
    -0.0000  -0.0000  -0.0000  -0.0000  -0.0000  -0.0000  -0.0000  -0.0000
    -0.0000  -0.0000  -0.0000  -0.0000  -0.0000  -0.0000  -0.0000  -0.0000
    -0.0000  -0.0000  -0.0000  -0.0000

          k = 0.1250 0.2165 0.0000 ( 20099 PWs)   bands (ev):

   -24.6215 -24.6215 -24.5320 -24.5320 -24.4784 -24.4784 -24.4580 -24.4580
   -23.6514 -23.6514 -23.5094 -23.5094 -23.4528 -23.4528 -23.4036 -23.4036
   -23.3358 -23.3358 -23.2986 -23.2986 -11.7853 -11.7853  -6.4730  -6.4730
    -4.1629  -4.1629  -3.8679  -3.8679  -1.1015  -1.1015   0.6568   0.6568
     0.9913   0.9913   1.4824   1.4824   2.3888   2.3888   2.4997   2.4997
     2.7287   2.7287   3.7887   3.7887   4.1102   4.1102   4.5812   4.5812
     5.8643   5.8643   6.2051   6.2051   6.4428   6.4429   6.4715   6.4715
     6.9177   6.9177   7.3003   7.3011

     occupation numbers 
     1.0000   1.0000   1.0000   1.0000   1.0000   1.0000   1.0000   1.0000
     1.0000   1.0000   1.0000   1.0000   1.0000   1.0000   1.0000   1.0000
     1.0000   1.0000   1.0000   1.0000   1.0000   1.0000   1.0000   1.0000
     1.0000   1.0000   1.0000   1.0000  -0.0000  -0.0000  -0.0000  -0.0000
    -0.0000  -0.0000  -0.0000  -0.0000  -0.0000  -0.0000  -0.0000  -0.0000
    -0.0000  -0.0000  -0.0000  -0.0000  -0.0000  -0.0000  -0.0000  -0.0000
    -0.0000  -0.0000  -0.0000  -0.0000  -0.0000  -0.0000  -0.0000  -0.0000
    -0.0000  -0.0000  -0.0000  -0.0000

          k = 0.1250 0.2646 0.0000 ( 20119 PWs)   bands (ev):

   -24.6229 -24.6229 -24.5403 -24.5403 -24.4800 -24.4800 -24.4580 -24.4580
   -23.6514 -23.6514 -23.5168 -23.5168 -23.4430 -23.4430 -23.4045 -23.4045
   -23.3313 -23.3313 -23.2892 -23.2892 -11.6415 -11.6415  -6.9246  -6.9246
    -4.3766  -4.3766  -3.7287  -3.7287  -0.8758  -0.8758   0.5903   0.5903
     0.8649   0.8649   1.6378   1.6378   2.5414   2.5414   2.8865   2.8865
     3.0845   3.0845   3.8265   3.8265   4.2662   4.2662   4.3880   4.3880
     6.2678   6.2679   6.3435   6.3436   6.4769   6.4770   6.5003   6.5003
     6.6241   6.6241   7.1794   7.1796

     occupation numbers 
     1.0000   1.0000   1.0000   1.0000   1.0000   1.0000   1.0000   1.0000
     1.0000   1.0000   1.0000   1.0000   1.0000   1.0000   1.0000   1.0000
     1.0000   1.0000   1.0000   1.0000   1.0000   1.0000   1.0000   1.0000
     1.0000   1.0000   1.0000   1.0000  -0.0000  -0.0000  -0.0000  -0.0000
    -0.0000  -0.0000  -0.0000  -0.0000  -0.0000  -0.0000  -0.0000  -0.0000
    -0.0000  -0.0000  -0.0000  -0.0000  -0.0000  -0.0000  -0.0000  -0.0000
    -0.0000  -0.0000  -0.0000  -0.0000  -0.0000  -0.0000  -0.0000  -0.0000
    -0.0000  -0.0000  -0.0000  -0.0000

          k = 0.1250 0.3127 0.0000 ( 20122 PWs)   bands (ev):

   -24.6240 -24.6240 -24.5498 -24.5498 -24.4815 -24.4815 -24.4573 -24.4573
   -23.6504 -23.6504 -23.5251 -23.5251 -23.4352 -23.4352 -23.4038 -23.4038
   -23.3255 -23.3255 -23.2804 -23.2804 -11.4716 -11.4716  -7.3739  -7.3739
    -4.5791  -4.5791  -3.5595  -3.5595  -0.7745  -0.7745   0.2515   0.2515
     1.1674   1.1674   1.8247   1.8247   2.6974   2.6974   3.0760   3.0760
     3.7038   3.7038   3.7623   3.7623   4.4004   4.4004   4.4513   4.4513
     5.9372   5.9372   6.2459   6.2459   6.5711   6.5712   6.6533   6.6533
     6.7597   6.7597   7.1722   7.1723

     occupation numbers 
     1.0000   1.0000   1.0000   1.0000   1.0000   1.0000   1.0000   1.0000
     1.0000   1.0000   1.0000   1.0000   1.0000   1.0000   1.0000   1.0000
     1.0000   1.0000   1.0000   1.0000   1.0000   1.0000   1.0000   1.0000
     1.0000   1.0000   1.0000   1.0000  -0.0000  -0.0000  -0.0000  -0.0000
    -0.0000  -0.0000  -0.0000  -0.0000  -0.0000  -0.0000  -0.0000  -0.0000
    -0.0000  -0.0000  -0.0000  -0.0000  -0.0000  -0.0000  -0.0000  -0.0000
    -0.0000  -0.0000  -0.0000  -0.0000  -0.0000  -0.0000  -0.0000  -0.0000
    -0.0000  -0.0000  -0.0000  -0.0000

          k = 0.1250 0.3608 0.0000 ( 20112 PWs)   bands (ev):

   -24.6244 -24.6244 -24.5598 -24.5598 -24.4828 -24.4828 -24.4563 -24.4563
   -23.6485 -23.6485 -23.5338 -23.5338 -23.4297 -23.4297 -23.4020 -23.4020
   -23.3185 -23.3185 -23.2726 -23.2726 -11.2781 -11.2781  -7.8097  -7.8097
    -4.7566  -4.7566  -3.3673  -3.3673  -0.7670  -0.7670  -0.1051  -0.1051
     1.6208   1.6208   2.0459   2.0459   2.8481   2.8481   3.2967   3.2967
     3.6438   3.6438   4.3478   4.3478   4.5568   4.5568   4.6638   4.6638
     5.4725   5.4725   6.0795   6.0795   6.5360   6.5361   6.5888   6.5889
     6.7348   6.7353   6.9682   6.9694

     occupation numbers 
     1.0000   1.0000   1.0000   1.0000   1.0000   1.0000   1.0000   1.0000
     1.0000   1.0000   1.0000   1.0000   1.0000   1.0000   1.0000   1.0000
     1.0000   1.0000   1.0000   1.0000   1.0000   1.0000   1.0000   1.0000
     1.0000   1.0000   1.0000   1.0000  -0.0000  -0.0000  -0.0000  -0.0000
    -0.0000  -0.0000  -0.0000  -0.0000  -0.0000  -0.0000  -0.0000  -0.0000
    -0.0000  -0.0000  -0.0000  -0.0000  -0.0000  -0.0000  -0.0000  -0.0000
    -0.0000  -0.0000  -0.0000  -0.0000  -0.0000  -0.0000  -0.0000  -0.0000
    -0.0000  -0.0000  -0.0000  -0.0000

          k = 0.1250 0.4090 0.0000 ( 20146 PWs)   bands (ev):

   -24.6242 -24.6242 -24.5697 -24.5697 -24.4839 -24.4839 -24.4553 -24.4553
   -23.6461 -23.6461 -23.5423 -23.5423 -23.4261 -23.4261 -23.4000 -23.4000
   -23.3112 -23.3112 -23.2662 -23.2662 -11.0662 -11.0662  -8.2215  -8.2215
    -4.9029  -4.9029  -3.1583  -3.1583  -0.8084  -0.8084  -0.4459  -0.4459
     2.1285   2.1285   2.3240   2.3240   2.9490   2.9490   3.5483   3.5483
     3.6296   3.6296   4.7332   4.7332   4.7780   4.7780   4.9124   4.9124
     5.2650   5.2650   5.8173   5.8173   6.2096   6.2097   6.3583   6.3583
     6.4454   6.4455   7.0747   7.0748

     occupation numbers 
     1.0000   1.0000   1.0000   1.0000   1.0000   1.0000   1.0000   1.0000
     1.0000   1.0000   1.0000   1.0000   1.0000   1.0000   1.0000   1.0000
     1.0000   1.0000   1.0000   1.0000   1.0000   1.0000   1.0000   1.0000
     1.0000   1.0000   1.0000   1.0000  -0.0000  -0.0000  -0.0000  -0.0000
[...]
     5.1074   5.1074   5.8036   5.8036   5.8827   5.8827   5.9284   5.9284
     6.0866   6.0866   6.4179   6.4180

     occupation numbers 
     1.0000   1.0000   1.0000   1.0000   1.0000   1.0000   1.0000   1.0000
     1.0000   1.0000   1.0000   1.0000   1.0000   1.0000   1.0000   1.0000
     1.0000   1.0000   1.0000   1.0000   1.0000   1.0000   1.0000   1.0000
     1.0000   1.0000   1.0107   1.0107  -0.0000  -0.0000  -0.0000  -0.0000
    -0.0000  -0.0000  -0.0000  -0.0000  -0.0000  -0.0000  -0.0000  -0.0000
    -0.0000  -0.0000  -0.0000  -0.0000  -0.0000  -0.0000  -0.0000  -0.0000
    -0.0000  -0.0000  -0.0000  -0.0000  -0.0000  -0.0000  -0.0000  -0.0000
    -0.0000  -0.0000  -0.0000  -0.0000

          k = 0.2083 0.3608 0.0000 ( 20119 PWs)   bands (ev):

   -24.6250 -24.6250 -24.5676 -24.5676 -24.4841 -24.4841 -24.4544 -24.4544
   -23.6459 -23.6459 -23.5415 -23.5415 -23.4275 -23.4275 -23.4007 -23.4007
   -23.3135 -23.3135 -23.2651 -23.2651 -11.1118 -11.1118  -8.0928  -8.0928
    -5.0686  -5.0686  -3.2014  -3.2014  -0.4120  -0.4120   0.0138   0.0138
     1.2402   1.2402   2.2093   2.2093   2.8024   2.8024   3.4855   3.4855
     3.5087   3.5087   4.7110   4.7111   4.8441   4.8441   5.0378   5.0378
     5.5846   5.5846   5.8390   5.8390   6.3997   6.3997   6.7739   6.7739
     6.8961   6.8963   6.9104   6.9109

     occupation numbers 
     1.0000   1.0000   1.0000   1.0000   1.0000   1.0000   1.0000   1.0000
     1.0000   1.0000   1.0000   1.0000   1.0000   1.0000   1.0000   1.0000
     1.0000   1.0000   1.0000   1.0000   1.0000   1.0000   1.0000   1.0000
     1.0000   1.0000   1.0000   1.0000  -0.0000  -0.0000  -0.0000  -0.0000
    -0.0000  -0.0000  -0.0000  -0.0000  -0.0000  -0.0000  -0.0000  -0.0000
    -0.0000  -0.0000  -0.0000  -0.0000  -0.0000  -0.0000  -0.0000  -0.0000
    -0.0000  -0.0000  -0.0000  -0.0000  -0.0000  -0.0000  -0.0000  -0.0000
    -0.0000  -0.0000  -0.0000  -0.0000

          k = 0.2083 0.4090 0.0000 ( 20133 PWs)   bands (ev):

   -24.6250 -24.6250 -24.5762 -24.5762 -24.4851 -24.4851 -24.4530 -24.4530
   -23.6425 -23.6425 -23.5498 -23.5498 -23.4261 -23.4261 -23.3982 -23.3982
   -23.3079 -23.3079 -23.2583 -23.2583 -10.9000 -10.9000  -8.4455  -8.4455
    -5.2619  -5.2619  -2.9927  -2.9927  -0.6966  -0.6966   0.1787   0.1787
     1.5423   1.5423   2.4449   2.4449   2.7035   2.7035   3.6363   3.6363
     3.7366   3.7366   4.9439   4.9439   4.9687   4.9687   5.0846   5.0846
     5.5663   5.5663   5.9808   5.9808   6.1140   6.1141   6.4070   6.4070
     6.6054   6.6056   6.6966   6.6966

     occupation numbers 
     1.0000   1.0000   1.0000   1.0000   1.0000   1.0000   1.0000   1.0000
     1.0000   1.0000   1.0000   1.0000   1.0000   1.0000   1.0000   1.0000
     1.0000   1.0000   1.0000   1.0000   1.0000   1.0000   1.0000   1.0000
     1.0000   1.0000   1.0005   1.0005  -0.0000  -0.0000  -0.0000  -0.0000
    -0.0000  -0.0000  -0.0000  -0.0000  -0.0000  -0.0000  -0.0000  -0.0000
    -0.0000  -0.0000  -0.0000  -0.0000  -0.0000  -0.0000  -0.0000  -0.0000
    -0.0000  -0.0000  -0.0000  -0.0000  -0.0000  -0.0000  -0.0000  -0.0000
    -0.0000  -0.0000  -0.0000  -0.0000

          k = 0.2083 0.4571 0.0000 ( 20137 PWs)   bands (ev):

   -24.6244 -24.6244 -24.5838 -24.5838 -24.4857 -24.4857 -24.4518 -24.4518
   -23.6389 -23.6389 -23.5573 -23.5573 -23.4256 -23.4256 -23.3960 -23.3960
   -23.3033 -23.3033 -23.2525 -23.2525 -10.6763 -10.6763  -8.7787  -8.7787
    -5.4100  -5.4100  -2.7744  -2.7744  -0.9874  -0.9874   0.2350   0.2350
     2.0119   2.0119   2.5821   2.5821   2.7080   2.7080   3.8650   3.8650
     4.0174   4.0174   4.5850   4.5850   5.1998   5.1998   5.3204   5.3204
     5.3762   5.3762   5.6894   5.6894   5.8948   5.8948   6.2209   6.2209
     6.4720   6.4721   6.6582   6.6584

     occupation numbers 
     1.0000   1.0000   1.0000   1.0000   1.0000   1.0000   1.0000   1.0000
     1.0000   1.0000   1.0000   1.0000   1.0000   1.0000   1.0000   1.0000
     1.0000   1.0000   1.0000   1.0000   1.0000   1.0000   1.0000   1.0000
     1.0000   1.0000   1.0118   1.0118  -0.0000  -0.0000  -0.0000  -0.0000
    -0.0000  -0.0000  -0.0000  -0.0000  -0.0000  -0.0000  -0.0000  -0.0000
    -0.0000  -0.0000  -0.0000  -0.0000  -0.0000  -0.0000  -0.0000  -0.0000
    -0.0000  -0.0000  -0.0000  -0.0000  -0.0000  -0.0000  -0.0000  -0.0000
    -0.0000  -0.0000  -0.0000  -0.0000

          k = 0.2083 0.5052 0.0000 ( 20163 PWs)   bands (ev):

   -24.6236 -24.6236 -24.5896 -24.5896 -24.4862 -24.4862 -24.4509 -24.4509
   -23.6358 -23.6358 -23.5633 -23.5633 -23.4254 -23.4254 -23.3944 -23.3944
   -23.3001 -23.3001 -23.2485 -23.2485 -10.4604 -10.4604  -9.0695  -9.0695
    -5.5098  -5.5098  -2.5660  -2.5660  -1.2474  -1.2474   0.2424   0.2424
     2.4796   2.4796   2.5555   2.5555   2.9856   2.9856   4.1405   4.1405
     4.1742   4.1743   4.3296   4.3296   5.0802   5.0802   5.2366   5.2366
     5.4133   5.4133   5.5320   5.5321   5.5585   5.5585   5.9722   5.9722
     6.3584   6.3584   6.6244   6.6257

     occupation numbers 
     1.0000   1.0000   1.0000   1.0000   1.0000   1.0000   1.0000   1.0000
     1.0000   1.0000   1.0000   1.0000   1.0000   1.0000   1.0000   1.0000
     1.0000   1.0000   1.0000   1.0000   1.0000   1.0000   1.0000   1.0000
     1.0000   1.0000   1.0330   1.0330  -0.0000  -0.0000  -0.0000  -0.0000
    -0.0000  -0.0000  -0.0000  -0.0000  -0.0000  -0.0000  -0.0000  -0.0000
    -0.0000  -0.0000  -0.0000  -0.0000  -0.0000  -0.0000  -0.0000  -0.0000
    -0.0000  -0.0000  -0.0000  -0.0000  -0.0000  -0.0000  -0.0000  -0.0000
    -0.0000  -0.0000  -0.0000  -0.0000

          k = 0.2083 0.5533 0.0000 ( 20157 PWs)   bands (ev):

   -24.6230 -24.6230 -24.5929 -24.5929 -24.4863 -24.4863 -24.4505 -24.4505
   -23.6338 -23.6338 -23.5667 -23.5667 -23.4254 -23.4254 -23.3935 -23.3935
   -23.2983 -23.2983 -23.2463 -23.2463 -10.3050 -10.3050  -9.2629  -9.2629
    -5.5599  -5.5599  -2.4180  -2.4180  -1.4221  -1.4221   0.2393   0.2393
     2.4424   2.4424   2.9584   2.9584   3.3149   3.3149   3.7497   3.7497
     4.4417   4.4417   4.6205   4.6205   4.7968   4.7968   4.8981   4.8981
     5.0628   5.0628   5.5062   5.5062   5.8491   5.8492   6.1169   6.1170
     6.1521   6.1521   6.4893   6.4913

     occupation numbers 
     1.0000   1.0000   1.0000   1.0000   1.0000   1.0000   1.0000   1.0000
     1.0000   1.0000   1.0000   1.0000   1.0000   1.0000   1.0000   1.0000
     1.0000   1.0000   1.0000   1.0000   1.0000   1.0000   1.0000   1.0000
     1.0000   1.0000   0.9031   0.9031  -0.0001  -0.0001  -0.0000  -0.0000
    -0.0000  -0.0000  -0.0000  -0.0000  -0.0000  -0.0000  -0.0000  -0.0000
    -0.0000  -0.0000  -0.0000  -0.0000  -0.0000  -0.0000  -0.0000  -0.0000
    -0.0000  -0.0000  -0.0000  -0.0000  -0.0000  -0.0000  -0.0000  -0.0000
    -0.0000  -0.0000  -0.0000  -0.0000

          k = 0.2500 0.4330 0.0000 ( 20149 PWs)   bands (ev):

   -24.6248 -24.6248 -24.5835 -24.5835 -24.4858 -24.4858 -24.4515 -24.4515
   -23.6386 -23.6386 -23.5576 -23.5576 -23.4261 -23.4261 -23.3958 -23.3958
   -23.3039 -23.3039 -23.2518 -23.2518 -10.6815 -10.6815  -8.7588  -8.7588
    -5.4565  -5.4565  -2.7786  -2.7786  -0.9701  -0.9701   0.5496   0.5496
     1.6646   1.6646   2.5333   2.5333   2.6921   2.6921   3.8487   3.8487
     4.0021   4.0021   4.7778   4.7778   5.1404   5.1404   5.2018   5.2018
     5.3154   5.3154   5.8874   5.8874   6.1052   6.1052   6.2644   6.2644
     6.2815   6.2815   6.4002   6.4002

     occupation numbers 
     1.0000   1.0000   1.0000   1.0000   1.0000   1.0000   1.0000   1.0000
     1.0000   1.0000   1.0000   1.0000   1.0000   1.0000   1.0000   1.0000
     1.0000   1.0000   1.0000   1.0000   1.0000   1.0000   1.0000   1.0000
     1.0000   1.0000   1.0112   1.0112  -0.0000  -0.0000  -0.0000  -0.0000
    -0.0000  -0.0000  -0.0000  -0.0000  -0.0000  -0.0000  -0.0000  -0.0000
    -0.0000  -0.0000  -0.0000  -0.0000  -0.0000  -0.0000  -0.0000  -0.0000
    -0.0000  -0.0000  -0.0000  -0.0000  -0.0000  -0.0000  -0.0000  -0.0000
    -0.0000  -0.0000  -0.0000  -0.0000

          k = 0.2500 0.4811 0.0000 ( 20153 PWs)   bands (ev):

   -24.6244 -24.6244 -24.5895 -24.5895 -24.4864 -24.4864 -24.4503 -24.4503
   -23.6348 -23.6348 -23.5644 -23.5644 -23.4264 -23.4264 -23.3937 -23.3937
   -23.3009 -23.3009 -23.2466 -23.2466 -10.4541 -10.4541  -9.0555  -9.0555
    -5.5992  -5.5992  -2.5579  -2.5579  -1.2372  -1.2372   0.7492   0.7492
     1.9931   1.9931   2.3987   2.3987   2.9568   2.9568   4.1168   4.1168
     4.2945   4.2945   4.4462   4.4462   4.8322   4.8322   5.3518   5.3518
     5.4458   5.4458   5.5981   5.5982   5.7768   5.7769   5.9495   5.9496
     6.1124   6.1125   6.2467   6.2468

     occupation numbers 
     1.0000   1.0000   1.0000   1.0000   1.0000   1.0000   1.0000   1.0000
     1.0000   1.0000   1.0000   1.0000   1.0000   1.0000   1.0000   1.0000
     1.0000   1.0000   1.0000   1.0000   1.0000   1.0000   1.0000   1.0000
     1.0000   1.0000   1.0314   1.0314  -0.0000  -0.0000  -0.0000  -0.0000
    -0.0000  -0.0000  -0.0000  -0.0000  -0.0000  -0.0000  -0.0000  -0.0000
    -0.0000  -0.0000  -0.0000  -0.0000  -0.0000  -0.0000  -0.0000  -0.0000
    -0.0000  -0.0000  -0.0000  -0.0000  -0.0000  -0.0000  -0.0000  -0.0000
    -0.0000  -0.0000  -0.0000  -0.0000

          k = 0.2500 0.5292 0.0000 ( 20133 PWs)   bands (ev):

   -24.6239 -24.6239 -24.5934 -24.5934 -24.4866 -24.4866 -24.4496 -24.4496
   -23.6318 -23.6318 -23.5692 -23.5692 -23.4267 -23.4267 -23.3924 -23.3924
   -23.2990 -23.2990 -23.2432 -23.2432 -10.2448 -10.2448  -9.3073  -9.3073
    -5.6860  -5.6860  -2.3567  -2.3567  -1.4671  -1.4671   0.8162   0.8162
     2.3078   2.3078   2.4315   2.4315   3.2365   3.2365   4.0099   4.0099
     4.4132   4.4132   4.4942   4.4942   4.6480   4.6480   5.1740   5.1740
     5.1899   5.1899   5.4532   5.4533   5.7614   5.7614   6.0613   6.0614
     6.0646   6.0647   6.2052   6.2054

     occupation numbers 
     1.0000   1.0000   1.0000   1.0000   1.0000   1.0000   1.0000   1.0000
     1.0000   1.0000   1.0000   1.0000   1.0000   1.0000   1.0000   1.0000
     1.0000   1.0000   1.0000   1.0000   1.0000   1.0000   1.0000   1.0000
     1.0000   1.0000   0.7692   0.7692  -0.0001  -0.0001  -0.0000  -0.0000
    -0.0000  -0.0000  -0.0000  -0.0000  -0.0000  -0.0000  -0.0000  -0.0000
    -0.0000  -0.0000  -0.0000  -0.0000  -0.0000  -0.0000  -0.0000  -0.0000
    -0.0000  -0.0000  -0.0000  -0.0000  -0.0000  -0.0000  -0.0000  -0.0000
    -0.0000  -0.0000  -0.0000  -0.0000

          k = 0.2500 0.5774 0.0000 ( 20123 PWs)   bands (ev):

   -24.6236 -24.6236 -24.5948 -24.5948 -24.4867 -24.4867 -24.4493 -24.4493
   -23.6306 -23.6306 -23.5710 -23.5710 -23.4268 -23.4268 -23.3919 -23.3919
   -23.2984 -23.2984 -23.2421 -23.2421 -10.1417 -10.1417  -9.4247  -9.4247
    -5.7151  -5.7151  -2.2587  -2.2587  -1.5749  -1.5749   0.8304   0.8304
     2.2817   2.2817   2.6674   2.6674   3.5484   3.5484   3.5868   3.5868
     4.3520   4.3520   4.6600   4.6600   4.9169   4.9170   4.9256   4.9256
     4.9948   4.9948   5.2693   5.2694   5.8816   5.8817   6.1150   6.1151
     6.1477   6.1477   6.3237   6.3254

     occupation numbers 
     1.0000   1.0000   1.0000   1.0000   1.0000   1.0000   1.0000   1.0000
     1.0000   1.0000   1.0000   1.0000   1.0000   1.0000   1.0000   1.0000
     1.0000   1.0000   1.0000   1.0000   1.0000   1.0000   1.0000   1.0000
     1.0000   1.0000   0.4818   0.4818  -0.0010  -0.0010  -0.0000  -0.0000
    -0.0000  -0.0000  -0.0000  -0.0000  -0.0000  -0.0000  -0.0000  -0.0000
    -0.0000  -0.0000  -0.0000  -0.0000  -0.0000  -0.0000  -0.0000  -0.0000
    -0.0000  -0.0000  -0.0000  -0.0000  -0.0000  -0.0000  -0.0000  -0.0000
    -0.0000  -0.0000  -0.0000  -0.0000

          k = 0.2917 0.5052 0.0000 ( 20137 PWs)   bands (ev):

   -24.6242 -24.6242 -24.5936 -24.5936 -24.4867 -24.4867 -24.4493 -24.4493
   -23.6311 -23.6311 -23.5702 -23.5702 -23.4272 -23.4272 -23.3920 -23.3920
   -23.2993 -23.2993 -23.2422 -23.2422 -10.2235 -10.2235  -9.3224  -9.3224
    -5.7298  -5.7298  -2.3349  -2.3349  -1.4828  -1.4828   1.1679   1.1679
     2.0745   2.0745   2.2688   2.2688   3.2177   3.2177   4.2587   4.2587
     4.2876   4.2876   4.4150   4.4150   4.5980   4.5980   5.1234   5.1234
     5.4001   5.4001   5.6134   5.6135   5.7521   5.7521   5.7971   5.7971
     5.9659   5.9659   6.1009   6.1010

     occupation numbers 
     1.0000   1.0000   1.0000   1.0000   1.0000   1.0000   1.0000   1.0000
     1.0000   1.0000   1.0000   1.0000   1.0000   1.0000   1.0000   1.0000
     1.0000   1.0000   1.0000   1.0000   1.0000   1.0000   1.0000   1.0000
     1.0000   1.0000   0.7108   0.7108  -0.0002  -0.0002  -0.0000  -0.0000
    -0.0000  -0.0000  -0.0000  -0.0000  -0.0000  -0.0000  -0.0000  -0.0000
    -0.0000  -0.0000  -0.0000  -0.0000  -0.0000  -0.0000  -0.0000  -0.0000
    -0.0000  -0.0000  -0.0000  -0.0000  -0.0000  -0.0000  -0.0000  -0.0000
    -0.0000  -0.0000  -0.0000  -0.0000

          k = 0.2917 0.5533 0.0000 ( 20132 PWs)   bands (ev):

   -24.6241 -24.6241 -24.5958 -24.5958 -24.4869 -24.4869 -24.4487 -24.4487
   -23.6288 -23.6288 -23.5735 -23.5735 -23.4276 -23.4276 -23.3911 -23.3911
   -23.2985 -23.2985 -23.2398 -23.2398 -10.0190 -10.0190  -9.5449  -9.5449
    -5.7962  -5.7962  -2.1387  -2.1387  -1.6903  -1.6903   1.3691   1.3691
     2.1951   2.1951   2.2673   2.2673   3.4538   3.4538   3.8117   3.8117
     4.1251   4.1251   4.7161   4.7161   4.8274   4.8274   5.0682   5.0682
     5.1170   5.1171   5.3923   5.3923   5.5854   5.5855   5.7557   5.7557
     6.1823   6.1824   6.3737   6.3738

     occupation numbers 
     1.0000   1.0000   1.0000   1.0000   1.0000   1.0000   1.0000   1.0000
     1.0000   1.0000   1.0000   1.0000   1.0000   1.0000   1.0000   1.0000
     1.0000   1.0000   1.0000   1.0000   1.0000   1.0000   1.0000   1.0000
     1.0000   1.0000   0.1511   0.1511  -0.0055  -0.0055  -0.0000  -0.0000
    -0.0000  -0.0000  -0.0000  -0.0000  -0.0000  -0.0000  -0.0000  -0.0000
    -0.0000  -0.0000  -0.0000  -0.0000  -0.0000  -0.0000  -0.0000  -0.0000
    -0.0000  -0.0000  -0.0000  -0.0000  -0.0000  -0.0000  -0.0000  -0.0000
    -0.0000  -0.0000  -0.0000  -0.0000

          k = 0.3333 0.5774 0.0000 ( 20133 PWs)   bands (ev):

   -24.6242 -24.6242 -24.5965 -24.5965 -24.4870 -24.4870 -24.4485 -24.4485
   -23.6276 -23.6276 -23.5751 -23.5751 -23.4280 -23.4280 -23.3906 -23.3906
   -23.2984 -23.2984 -23.2386 -23.2386  -9.8116  -9.8116  -9.7559  -9.7559
    -5.8337  -5.8337  -1.9258  -1.9258  -1.9047  -1.9047   1.7188   1.7188
     2.0726   2.0726   2.1649   2.1649   3.4804   3.4804   3.8807   3.8807
     3.8820   3.8820   4.7928   4.7928   4.9849   4.9849   4.9866   4.9866
     5.3262   5.3262   5.3262   5.3262   5.4175   5.4175   5.4560   5.4560
     6.4359   6.4362   6.4388   6.4390

     occupation numbers 
     1.0000   1.0000   1.0000   1.0000   1.0000   1.0000   1.0000   1.0000
     1.0000   1.0000   1.0000   1.0000   1.0000   1.0000   1.0000   1.0000
     1.0000   1.0000   1.0000   1.0000   1.0000   1.0000   1.0000   1.0000
     1.0000   1.0000  -0.0354  -0.0354  -0.0342  -0.0342  -0.0000  -0.0000
    -0.0000  -0.0000  -0.0000  -0.0000  -0.0000  -0.0000  -0.0000  -0.0000
    -0.0000  -0.0000  -0.0000  -0.0000  -0.0000  -0.0000  -0.0000  -0.0000
    -0.0000  -0.0000  -0.0000  -0.0000  -0.0000  -0.0000  -0.0000  -0.0000
    -0.0000  -0.0000  -0.0000  -0.0000

     the Fermi energy is    -2.2646 ev

!    total energy              =    -885.78106319 Ry
     total all-electron energy =    -24716.480813 Ry
     estimated scf accuracy    <          7.6E-09 Ry
     smearing contrib. (-TS)   =       0.00025028 Ry
     internal energy E=F+TS    =    -885.78131347 Ry

     The total energy is F=E-TS. E is the sum of the following terms:
     one-electron contribution =    -874.60668870 Ry
     hartree contribution      =     446.29911740 Ry
     xc contribution           =     -96.08778028 Ry
     ewald contribution        =     202.48066054 Ry
     one-center paw contrib.   =    -563.86662243 Ry
      -> PAW hartree energy AE =     112.69733662 Ry
      -> PAW hartree energy PS =    -111.95677587 Ry
      -> PAW xc energy AE      =    -330.15633664 Ry
      -> PAW xc energy PS      =      47.48246467 Ry
      -> total E_H with PAW    =     447.03967815 Ry
      -> total E_XC with PAW   =    -378.76165225 Ry

     convergence has been achieved in   6 iterations

     Writing all to output data dir ../tmp/stanene.save/

     init_run     :    267.77s CPU    367.52s WALL (       1 calls)
     electrons    :   4370.72s CPU   6091.61s WALL (       1 calls)

     Called by init_run:
     wfcinit      :    141.29s CPU    247.59s WALL (       1 calls)
     wfcinit:atom :      1.69s CPU      2.35s WALL (      61 calls)
     wfcinit:wfcr :    135.09s CPU    238.55s WALL (      61 calls)
     potinit      :      2.13s CPU      2.44s WALL (       1 calls)
     hinit0       :      1.60s CPU      1.68s WALL (       1 calls)

     Called by electrons:
     c_bands      :   3529.90s CPU   4907.88s WALL (       7 calls)
     sum_band     :    600.96s CPU    835.49s WALL (       7 calls)
     v_of_rho     :      5.91s CPU      6.82s WALL (       7 calls)
     v_h          :      0.54s CPU      0.66s WALL (       7 calls)
     v_xc         :      5.36s CPU      6.15s WALL (       7 calls)
     newd         :    339.60s CPU    434.85s WALL (       7 calls)
     PAW_pot      :      4.26s CPU      5.09s WALL (       7 calls)
     mix_rho      :      6.59s CPU      7.80s WALL (       7 calls)

     Called by c_bands:
     init_us_2    :      3.65s CPU      5.88s WALL (     915 calls)
     init_us_2:cp :      3.62s CPU      5.81s WALL (     915 calls)
     cegterg      :   3429.41s CPU   4815.12s WALL (     427 calls)

     Called by sum_band:
     sum_band:wei :      0.03s CPU      0.04s WALL (       7 calls)
     sum_band:loo :    314.74s CPU    423.94s WALL (       7 calls)
     sum_band:buf :     40.89s CPU     50.97s WALL (     427 calls)
     sum_band:ini :      0.65s CPU      0.98s WALL (     427 calls)
     sum_band:cal :     91.49s CPU    159.76s WALL (     427 calls)
     sum_band:bec :     16.48s CPU     38.37s WALL (     427 calls)
     addusdens    :    259.46s CPU    383.62s WALL (       7 calls)
                                        0.00s GPU  (       7 calls)
     addusd:skk   :      0.75s CPU      2.77s WALL (       7 calls)
                                        0.00s GPU  (       7 calls)

     Called by *egterg:
     cdiaghg      :    587.33s CPU    543.05s WALL (    2659 calls)
     cegterg:over :    836.87s CPU   1403.07s WALL (    2293 calls)
     cegterg:upda :    100.84s CPU    163.91s WALL (    2293 calls)
     cegterg:last :    115.80s CPU    146.59s WALL (    1014 calls)
     h_psi        :   1386.46s CPU   1940.39s WALL (    2781 calls)
     s_psi        :     50.17s CPU     84.20s WALL (    2781 calls)
     g_psi        :      2.13s CPU      1.79s WALL (    2293 calls)

     Called by h_psi:
     h_psi:calbec :    557.26s CPU   1013.79s WALL (    2781 calls)
     vloc_psi     :    737.47s CPU    732.89s WALL (    2781 calls)
     add_vuspsi   :     85.57s CPU    183.95s WALL (    2781 calls)

     General routines
     calbec       :    648.71s CPU   1173.04s WALL (    3208 calls)
     fft          :      4.37s CPU      4.59s WALL (     165 calls)
     ffts         :      1.17s CPU      1.20s WALL (      56 calls)
     fftw         :    638.68s CPU    631.31s WALL (  353968 calls)
     interpolate  :      1.18s CPU      1.24s WALL (      28 calls)

     Parallel routines

     PAW routines
     PAW_pot      :      4.26s CPU      5.09s WALL (       7 calls)
     PAW_symme    :      0.14s CPU      0.14s WALL (      14 calls)

     PWSCF        :      1h18m CPU      1h49m WALL


   This run was terminated on:   5:28:34  28Jun2024            

=------------------------------------------------------------------------------=
   JOB DONE.
=------------------------------------------------------------------------------=
