
     Program PROJWFC v.7.2 starts on 23Jun2024 at 18:45: 1 

     This program is part of the open-source Quantum ESPRESSO suite
     for quantum simulation of materials; please cite
         "P. Giannozzi et al., J. Phys.:Condens. Matter 21 395502 (2009);
         "P. Giannozzi et al., J. Phys.:Condens. Matter 29 465901 (2017);
         "P. Giannozzi et al., J. Chem. Phys. 152 154105 (2020);
          URL http://www.quantum-espresso.org", 
     in publications or presentations arising from this work. More details at
     http://www.quantum-espresso.org/quote

     Parallel version (MPI), running on     6 processors

     MPI processes distributed on     1 nodes
     R & G space division:  proc/nbgrp/npool/nimage =       6
     6458 MiB available memory on the printing compute node when the environment starts


     Reading xml data from directory:

     ../tmp/stanene.save/

     IMPORTANT: XC functional enforced from input :
     Exchange-correlation= PBE
                           (   1   4   3   4   0   0   0)
     Any further DFT definition will be discarded
     Please, verify this is what you really want


     Parallelization info
     --------------------
     sticks:   dense  smooth     PW     G-vecs:    dense   smooth      PW
     Min         431     214     61                75909    26818    4015
     Max         432     215     62                75924    26841    4025
     Sum        2587    1285    367               455489   160939   24117

     Using Slab Decomposition


     negative rho (up, down):  8.723E-05 0.000E+00

     Gaussian broadening (read from input): ngauss,degauss=   0    0.020000


     Calling projwave .... 
     Subspace diagonalization in iterative solution of the eigenvalue problem:
     a serial algorithm will be used


  Problem Sizes 
  natomwfc =           18
  nbnd     =           16
  nkstot   =           91
  npwx     =         3341
  nkb      =           36


     Atomic states used for projection
     (read from pseudopotential files):

     state #   1: atom   1 (Sn ), wfc  1 (l=2 m= 1)
     state #   2: atom   1 (Sn ), wfc  1 (l=2 m= 2)
     state #   3: atom   1 (Sn ), wfc  1 (l=2 m= 3)
     state #   4: atom   1 (Sn ), wfc  1 (l=2 m= 4)
     state #   5: atom   1 (Sn ), wfc  1 (l=2 m= 5)
     state #   6: atom   1 (Sn ), wfc  2 (l=0 m= 1)
     state #   7: atom   1 (Sn ), wfc  3 (l=1 m= 1)
     state #   8: atom   1 (Sn ), wfc  3 (l=1 m= 2)
     state #   9: atom   1 (Sn ), wfc  3 (l=1 m= 3)
     state #  10: atom   2 (Sn ), wfc  1 (l=2 m= 1)
     state #  11: atom   2 (Sn ), wfc  1 (l=2 m= 2)
     state #  12: atom   2 (Sn ), wfc  1 (l=2 m= 3)
     state #  13: atom   2 (Sn ), wfc  1 (l=2 m= 4)
     state #  14: atom   2 (Sn ), wfc  1 (l=2 m= 5)
     state #  15: atom   2 (Sn ), wfc  2 (l=0 m= 1)
     state #  16: atom   2 (Sn ), wfc  3 (l=1 m= 1)
     state #  17: atom   2 (Sn ), wfc  3 (l=1 m= 2)
     state #  18: atom   2 (Sn ), wfc  3 (l=1 m= 3)

 k =   0.0000000000  0.0000000000  0.0000000000
==== e(   1) =   -24.11240 eV ==== 
     psi = 0.498*[#   1]+0.498*[#  10]+0.002*[#   6]+0.002*[#  15]
    |psi|^2 = 1.000
==== e(   2) =   -24.09572 eV ==== 
     psi = 0.249*[#   4]+0.249*[#   5]+0.249*[#  13]+0.249*[#  14]+0.001*[#   8]
          +0.001*[#   9]+0.001*[#  17]+0.001*[#  18]
    |psi|^2 = 1.000
==== e(   3) =   -24.09572 eV ==== 
     psi = 0.249*[#   4]+0.249*[#   5]+0.249*[#  13]+0.249*[#  14]+0.001*[#   8]
          +0.001*[#   9]+0.001*[#  17]+0.001*[#  18]
    |psi|^2 = 1.000
==== e(   4) =   -23.99508 eV ==== 
     psi = 0.250*[#   2]+0.250*[#   3]+0.250*[#  11]+0.250*[#  12]
    |psi|^2 = 1.000
==== e(   5) =   -23.99508 eV ==== 
     psi = 0.250*[#   2]+0.250*[#   3]+0.250*[#  11]+0.250*[#  12]
    |psi|^2 = 1.000
==== e(   6) =   -23.83377 eV ==== 
     psi = 0.249*[#   4]+0.249*[#   5]+0.249*[#  13]+0.249*[#  14]+0.001*[#   8]
          +0.001*[#   9]+0.001*[#  17]+0.001*[#  18]
    |psi|^2 = 1.000
==== e(   7) =   -23.83377 eV ==== 
     psi = 0.249*[#   4]+0.249*[#   5]+0.249*[#  13]+0.249*[#  14]+0.001*[#   8]
          +0.001*[#   9]+0.001*[#  17]+0.001*[#  18]
    |psi|^2 = 1.000
==== e(   8) =   -23.76449 eV ==== 
     psi = 0.250*[#   2]+0.250*[#   3]+0.250*[#  11]+0.250*[#  12]
    |psi|^2 = 1.000
==== e(   9) =   -23.76449 eV ==== 
     psi = 0.250*[#   2]+0.250*[#   3]+0.250*[#  11]+0.250*[#  12]
    |psi|^2 = 1.000
==== e(  10) =   -23.70709 eV ==== 
     psi = 0.499*[#   1]+0.499*[#  10]
    |psi|^2 = 1.000
==== e(  11) =   -12.20540 eV ==== 
     psi = 0.497*[#   6]+0.497*[#  15]+0.002*[#   1]+0.002*[#  10]
    |psi|^2 = 0.997
==== e(  12) =    -4.29130 eV ==== 
     psi = 0.499*[#   7]+0.499*[#  16]
    |psi|^2 = 0.997
==== e(  13) =    -3.69882 eV ==== 
     psi = 0.494*[#   6]+0.494*[#  15]
    |psi|^2 = 0.990
==== e(  14) =    -3.35055 eV ==== 
     psi = 0.248*[#   8]+0.248*[#   9]+0.248*[#  17]+0.248*[#  18]+0.001*[#   4]
          +0.001*[#   5]+0.001*[#  13]+0.001*[#  14]
    |psi|^2 = 0.996
==== e(  15) =    -3.35055 eV ==== 
     psi = 0.248*[#   8]+0.248*[#   9]+0.248*[#  17]+0.248*[#  18]+0.001*[#   4]
          +0.001*[#   5]+0.001*[#  13]+0.001*[#  14]
    |psi|^2 = 0.996
==== e(  16) =     0.66651 eV ==== 
     psi = 0.236*[#   8]+0.236*[#   9]+0.236*[#  17]+0.236*[#  18]+0.001*[#   4]
          +0.001*[#   5]+0.001*[#  13]+0.001*[#  14]
    |psi|^2 = 0.948

 k =   0.0166666667  0.0000000000  0.0000000000
==== e(   1) =   -24.11249 eV ==== 
     psi = 0.498*[#   1]+0.498*[#  10]+0.002*[#   6]+0.002*[#  15]
    |psi|^2 = 1.000
==== e(   2) =   -24.09628 eV ==== 
     psi = 0.249*[#   4]+0.249*[#   5]+0.249*[#  13]+0.249*[#  14]+0.001*[#   8]
          +0.001*[#   9]+0.001*[#  17]+0.001*[#  18]
    |psi|^2 = 1.000
==== e(   3) =   -24.09614 eV ==== 
     psi = 0.249*[#   4]+0.249*[#   5]+0.249*[#  13]+0.249*[#  14]+0.001*[#   8]
          +0.001*[#   9]+0.001*[#  17]+0.001*[#  18]
    |psi|^2 = 1.000
==== e(   4) =   -23.99513 eV ==== 
     psi = 0.250*[#   2]+0.250*[#   3]+0.250*[#  11]+0.250*[#  12]
    |psi|^2 = 1.000
==== e(   5) =   -23.99500 eV ==== 
     psi = 0.250*[#   2]+0.250*[#   3]+0.250*[#  11]+0.250*[#  12]
    |psi|^2 = 1.000
==== e(   6) =   -23.83325 eV ==== 
     psi = 0.248*[#   4]+0.248*[#   5]+0.248*[#  13]+0.248*[#  14]+0.001*[#   8]
          +0.001*[#   9]+0.001*[#  17]+0.001*[#  18]
    |psi|^2 = 1.000
==== e(   7) =   -23.83315 eV ==== 
     psi = 0.249*[#   4]+0.249*[#   5]+0.249*[#  13]+0.249*[#  14]+0.001*[#   8]
          +0.001*[#   9]+0.001*[#  17]+0.001*[#  18]
    |psi|^2 = 1.000
==== e(   8) =   -23.76459 eV ==== 
     psi = 0.250*[#   2]+0.250*[#   3]+0.250*[#  11]+0.250*[#  12]
    |psi|^2 = 1.000
==== e(   9) =   -23.76445 eV ==== 
     psi = 0.250*[#   2]+0.250*[#   3]+0.250*[#  11]+0.250*[#  12]
    |psi|^2 = 1.000
==== e(  10) =   -23.70707 eV ==== 
     psi = 0.499*[#   1]+0.499*[#  10]
    |psi|^2 = 1.000
==== e(  11) =   -12.20363 eV ==== 
     psi = 0.496*[#   6]+0.496*[#  15]+0.002*[#   1]+0.002*[#  10]
    |psi|^2 = 0.997
==== e(  12) =    -4.28946 eV ==== 
     psi = 0.499*[#   7]+0.499*[#  16]
    |psi|^2 = 0.997
==== e(  13) =    -3.79156 eV ==== 
     psi = 0.409*[#   6]+0.409*[#  15]+0.043*[#   8]+0.043*[#   9]+0.043*[#  17]
          +0.043*[#  18]
    |psi|^2 = 0.991
==== e(  14) =    -3.35465 eV ==== 
     psi = 0.248*[#   8]+0.248*[#   9]+0.248*[#  17]+0.248*[#  18]+0.001*[#   4]
          +0.001*[#   5]+0.001*[#  13]+0.001*[#  14]
    |psi|^2 = 0.996
==== e(  15) =    -3.25991 eV ==== 
     psi = 0.205*[#   8]+0.205*[#   9]+0.205*[#  17]+0.205*[#  18]+0.085*[#   6]
          +0.085*[#  15]+0.001*[#   4]+0.001*[#   5]+0.001*[#  13]+0.001*[#  14]
          
    |psi|^2 = 0.994
==== e(  16) =     0.66394 eV ==== 
     psi = 0.235*[#   8]+0.235*[#   9]+0.235*[#  17]+0.235*[#  18]+0.001*[#   4]
          +0.001*[#   5]+0.001*[#  13]+0.001*[#  14]
    |psi|^2 = 0.946

 k =   0.0333333333  0.0000000000  0.0000000000
==== e(   1) =   -24.11280 eV ==== 
     psi = 0.494*[#   1]+0.494*[#  10]+0.002*[#   4]+0.002*[#   5]+0.002*[#  13]
          +0.002*[#  14]+0.002*[#   6]+0.002*[#  15]
    |psi|^2 = 1.000
==== e(   2) =   -24.09789 eV ==== 
     psi = 0.248*[#   4]+0.248*[#   5]+0.248*[#  13]+0.248*[#  14]+0.002*[#   1]
          +0.002*[#  10]+0.001*[#   8]+0.001*[#   9]+0.001*[#  17]+0.001*[#  18]
          
    |psi|^2 = 1.000
==== e(   3) =   -24.09737 eV ==== 
     psi = 0.248*[#   4]+0.248*[#   5]+0.248*[#  13]+0.248*[#  14]+0.001*[#   8]
          +0.001*[#   9]+0.001*[#  17]+0.001*[#  18]
    |psi|^2 = 1.000
==== e(   4) =   -23.99526 eV ==== 
     psi = 0.250*[#   2]+0.250*[#   3]+0.250*[#  11]+0.250*[#  12]
    |psi|^2 = 1.000
==== e(   5) =   -23.99475 eV ==== 
     psi = 0.250*[#   2]+0.250*[#   3]+0.250*[#  11]+0.250*[#  12]
    |psi|^2 = 1.000
==== e(   6) =   -23.83172 eV ==== 
     psi = 0.248*[#   4]+0.248*[#   5]+0.248*[#  13]+0.248*[#  14]+0.002*[#   1]
          +0.002*[#  10]+0.001*[#   8]+0.001*[#   9]+0.001*[#  17]+0.001*[#  18]
          
    |psi|^2 = 1.000
==== e(   7) =   -23.83133 eV ==== 
     psi = 0.249*[#   4]+0.249*[#   5]+0.249*[#  13]+0.249*[#  14]+0.001*[#   8]
          +0.001*[#   9]+0.001*[#  17]+0.001*[#  18]
    |psi|^2 = 1.000
==== e(   8) =   -23.76487 eV ==== 
     psi = 0.250*[#   2]+0.250*[#   3]+0.250*[#  11]+0.250*[#  12]
    |psi|^2 = 1.000
==== e(   9) =   -23.76431 eV ==== 
     psi = 0.250*[#   2]+0.250*[#   3]+0.250*[#  11]+0.250*[#  12]
    |psi|^2 = 1.000
==== e(  10) =   -23.70702 eV ==== 
     psi = 0.498*[#   1]+0.498*[#  10]
    |psi|^2 = 1.000
==== e(  11) =   -12.19830 eV ==== 
     psi = 0.496*[#   6]+0.496*[#  15]+0.002*[#   1]+0.002*[#  10]
    |psi|^2 = 0.997
==== e(  12) =    -4.28394 eV ==== 
     psi = 0.499*[#   7]+0.499*[#  16]
    |psi|^2 = 0.997
==== e(  13) =    -3.96605 eV ==== 
     psi = 0.346*[#   6]+0.346*[#  15]+0.075*[#   8]+0.075*[#   9]+0.075*[#  17]
          +0.075*[#  18]
    |psi|^2 = 0.993
==== e(  14) =    -3.36693 eV ==== 
     psi = 0.248*[#   8]+0.248*[#   9]+0.248*[#  17]+0.248*[#  18]+0.001*[#   4]
          +0.001*[#   5]+0.001*[#  13]+0.001*[#  14]
    |psi|^2 = 0.996
==== e(  15) =    -3.09181 eV ==== 
     psi = 0.173*[#   8]+0.173*[#   9]+0.173*[#  17]+0.173*[#  18]+0.149*[#   6]
          +0.149*[#  15]
    |psi|^2 = 0.993
==== e(  16) =     0.65661 eV ==== 
     psi = 0.233*[#   8]+0.233*[#   9]+0.233*[#  17]+0.233*[#  18]+0.001*[#   4]
          +0.001*[#   5]+0.001*[#  13]+0.001*[#  14]+0.001*[#   6]+0.001*[#  15]
          
    |psi|^2 = 0.938

 k =   0.0500000000  0.0000000000  0.0000000000
==== e(   1) =   -24.11349 eV ==== 
     psi = 0.479*[#   1]+0.479*[#  10]+0.009*[#   4]+0.009*[#   5]+0.009*[#  13]
          +0.009*[#  14]+0.002*[#   6]+0.002*[#  15]
    |psi|^2 = 1.000
==== e(   2) =   -24.10033 eV ==== 
     psi = 0.242*[#   4]+0.242*[#   5]+0.242*[#  13]+0.242*[#  14]+0.014*[#   1]
          +0.014*[#  10]+0.001*[#   8]+0.001*[#   9]+0.001*[#  17]+0.001*[#  18]
          
    |psi|^2 = 1.000
==== e(   3) =   -24.09938 eV ==== 
     psi = 0.248*[#   4]+0.248*[#   5]+0.248*[#  13]+0.248*[#  14]+0.002*[#   1]
          +0.002*[#  10]+0.001*[#   8]+0.001*[#   9]+0.001*[#  17]+0.001*[#  18]
          
    |psi|^2 = 1.000
==== e(   4) =   -23.99549 eV ==== 
     psi = 0.250*[#   2]+0.250*[#   3]+0.250*[#  11]+0.250*[#  12]
    |psi|^2 = 1.000
==== e(   5) =   -23.99434 eV ==== 
     psi = 0.250*[#   2]+0.250*[#   3]+0.250*[#  11]+0.250*[#  12]
    |psi|^2 = 1.000
==== e(   6) =   -23.82922 eV ==== 
     psi = 0.246*[#   4]+0.246*[#   5]+0.246*[#  13]+0.246*[#  14]+0.004*[#   1]
          +0.004*[#  10]+0.001*[#   8]+0.001*[#   9]+0.001*[#  17]+0.001*[#  18]
          
    |psi|^2 = 1.000
==== e(   7) =   -23.82834 eV ==== 
     psi = 0.249*[#   4]+0.249*[#   5]+0.249*[#  13]+0.249*[#  14]+0.001*[#   8]
          +0.001*[#   9]+0.001*[#  17]+0.001*[#  18]
    |psi|^2 = 1.000
==== e(   8) =   -23.76534 eV ==== 
     psi = 0.250*[#   2]+0.250*[#   3]+0.250*[#  11]+0.250*[#  12]
    |psi|^2 = 1.000
==== e(   9) =   -23.76408 eV ==== 
     psi = 0.250*[#   2]+0.250*[#   3]+0.250*[#  11]+0.250*[#  12]
    |psi|^2 = 1.000
==== e(  10) =   -23.70692 eV ==== 
     psi = 0.497*[#   1]+0.497*[#  10]+0.001*[#   4]+0.001*[#   5]+0.001*[#  13]
          +0.001*[#  14]
    |psi|^2 = 1.000
==== e(  11) =   -12.18942 eV ==== 
     psi = 0.494*[#   6]+0.494*[#  15]+0.002*[#   1]+0.002*[#  10]+0.001*[#   8]
          +0.001*[#   9]+0.001*[#  17]+0.001*[#  18]
    |psi|^2 = 0.997
==== e(  12) =    -4.27473 eV ==== 
     psi = 0.499*[#   7]+0.499*[#  16]
    |psi|^2 = 0.997
==== e(  13) =    -4.15865 eV ==== 
     psi = 0.316*[#   6]+0.316*[#  15]+0.090*[#   8]+0.090*[#   9]+0.090*[#  17]
          +0.090*[#  18]
    |psi|^2 = 0.994
==== e(  14) =    -3.38729 eV ==== 
     psi = 0.248*[#   8]+0.248*[#   9]+0.248*[#  17]+0.248*[#  18]+0.001*[#   4]
          +0.001*[#   5]+0.001*[#  13]+0.001*[#  14]
    |psi|^2 = 0.996
==== e(  15) =    -2.91004 eV ==== 
     psi = 0.178*[#   6]+0.178*[#  15]+0.158*[#   8]+0.158*[#   9]+0.158*[#  17]
          +0.158*[#  18]
    |psi|^2 = 0.991
==== e(  16) =     0.64555 eV ==== 
     psi = 0.230*[#   8]+0.230*[#   9]+0.230*[#  17]+0.230*[#  18]+0.002*[#   6]
          +0.002*[#  15]+0.001*[#   4]+0.001*[#   5]+0.001*[#  13]+0.001*[#  14]
          
    |psi|^2 = 0.928

 k =   0.0666666667  0.0000000000  0.0000000000
==== e(   1) =   -24.11499 eV ==== 
     psi = 0.433*[#   1]+0.433*[#  10]+0.032*[#   4]+0.032*[#   5]+0.032*[#  13]
          +0.032*[#  14]+0.002*[#   6]+0.002*[#  15]
    |psi|^2 = 1.000
==== e(   2) =   -24.10309 eV ==== 
     psi = 0.220*[#   4]+0.220*[#   5]+0.220*[#  13]+0.220*[#  14]+0.057*[#   1]
          +0.057*[#  10]+0.001*[#   8]+0.001*[#   9]+0.001*[#  17]+0.001*[#  18]
          
    |psi|^2 = 1.000
==== e(   3) =   -24.10207 eV ==== 
     psi = 0.247*[#   4]+0.247*[#   5]+0.247*[#  13]+0.247*[#  14]+0.004*[#   1]
          +0.004*[#  10]+0.001*[#   8]+0.001*[#   9]+0.001*[#  17]+0.001*[#  18]
          
    |psi|^2 = 1.000
==== e(   4) =   -23.99581 eV ==== 
     psi = 0.250*[#   2]+0.250*[#   3]+0.250*[#  11]+0.250*[#  12]
    |psi|^2 = 1.000
==== e(   5) =   -23.99377 eV ==== 
     psi = 0.250*[#   2]+0.250*[#   3]+0.250*[#  11]+0.250*[#  12]
    |psi|^2 = 1.000
==== e(   6) =   -23.82586 eV ==== 
     psi = 0.245*[#   4]+0.245*[#   5]+0.245*[#  13]+0.245*[#  14]+0.008*[#   1]
          +0.008*[#  10]+0.001*[#   8]+0.001*[#   9]+0.001*[#  17]+0.001*[#  18]
          
    |psi|^2 = 1.000
==== e(   7) =   -23.82430 eV ==== 
     psi = 0.248*[#   4]+0.248*[#   5]+0.248*[#  13]+0.248*[#  14]+0.001*[#   8]
          +0.001*[#   9]+0.001*[#  17]+0.001*[#  18]
    |psi|^2 = 1.000
==== e(   8) =   -23.76599 eV ==== 
     psi = 0.250*[#   2]+0.250*[#   3]+0.250*[#  11]+0.250*[#  12]
    |psi|^2 = 1.000
==== e(   9) =   -23.76376 eV ==== 
     psi = 0.250*[#   2]+0.250*[#   3]+0.250*[#  11]+0.250*[#  12]
    |psi|^2 = 1.000
==== e(  10) =   -23.70677 eV ==== 
     psi = 0.495*[#   1]+0.495*[#  10]+0.002*[#   4]+0.002*[#   5]+0.002*[#  13]
          +0.002*[#  14]
    |psi|^2 = 1.000
==== e(  11) =   -12.17699 eV ==== 
     psi = 0.492*[#   6]+0.492*[#  15]+0.002*[#   8]+0.002*[#   9]+0.002*[#  17]
          +0.002*[#  18]+0.002*[#   1]+0.002*[#  10]
    |psi|^2 = 0.997
==== e(  12) =    -4.35684 eV ==== 
     psi = 0.300*[#   6]+0.300*[#  15]+0.098*[#   8]+0.098*[#   9]+0.098*[#  17]
          +0.098*[#  18]
    |psi|^2 = 0.994
==== e(  13) =    -4.26186 eV ==== 
     psi = 0.499*[#   7]+0.499*[#  16]
    |psi|^2 = 0.997
==== e(  14) =    -3.41558 eV ==== 
     psi = 0.248*[#   8]+0.248*[#   9]+0.248*[#  17]+0.248*[#  18]+0.001*[#   4]
          +0.001*[#   5]+0.001*[#  13]+0.001*[#  14]
    |psi|^2 = 0.996
==== e(  15) =    -2.72740 eV ==== 
     psi = 0.194*[#   6]+0.194*[#  15]+0.150*[#   8]+0.150*[#   9]+0.150*[#  17]
          +0.150*[#  18]
    |psi|^2 = 0.990
==== e(  16) =     0.63215 eV ==== 
     psi = 0.226*[#   8]+0.226*[#   9]+0.226*[#  17]+0.226*[#  18]+0.004*[#   6]
          +0.004*[#  15]+0.001*[#   4]+0.001*[#   5]+0.001*[#  13]+0.001*[#  14]
          
    |psi|^2 = 0.917

 k =   0.0833333333  0.0000000000  0.0000000000
==== e(   1) =   -24.11793 eV ==== 
     psi = 0.340*[#   1]+0.340*[#  10]+0.079*[#   4]+0.079*[#   5]+0.079*[#  13]
          +0.079*[#  14]+0.001*[#   6]+0.001*[#  15]
    |psi|^2 = 1.000
==== e(   2) =   -24.10541 eV ==== 
     psi = 0.175*[#   4]+0.175*[#   5]+0.175*[#  13]+0.175*[#  14]+0.147*[#   1]
          +0.147*[#  10]
    |psi|^2 = 1.000
==== e(   3) =   -24.10536 eV ==== 
     psi = 0.246*[#   4]+0.246*[#   5]+0.246*[#  13]+0.246*[#  14]+0.006*[#   1]
          +0.006*[#  10]+0.001*[#   8]+0.001*[#   9]+0.001*[#  17]+0.001*[#  18]
          
    |psi|^2 = 1.000
==== e(   4) =   -23.99622 eV ==== 
     psi = 0.250*[#   2]+0.250*[#   3]+0.250*[#  11]+0.250*[#  12]
    |psi|^2 = 1.000
==== e(   5) =   -23.99304 eV ==== 
     psi = 0.250*[#   2]+0.250*[#   3]+0.250*[#  11]+0.250*[#  12]
    |psi|^2 = 1.000
==== e(   6) =   -23.82175 eV ==== 
     psi = 0.243*[#   4]+0.243*[#   5]+0.243*[#  13]+0.243*[#  14]+0.012*[#   1]
          +0.012*[#  10]+0.001*[#   8]+0.001*[#   9]+0.001*[#  17]+0.001*[#  18]
          
    |psi|^2 = 1.000
==== e(   7) =   -23.81930 eV ==== 
     psi = 0.248*[#   4]+0.248*[#   5]+0.248*[#  13]+0.248*[#  14]+0.001*[#   1]
          +0.001*[#  10]+0.001*[#   8]+0.001*[#   9]+0.001*[#  17]+0.001*[#  18]
          
    |psi|^2 = 1.000
==== e(   8) =   -23.76684 eV ==== 
     psi = 0.250*[#   2]+0.250*[#   3]+0.250*[#  11]+0.250*[#  12]
    |psi|^2 = 1.000
==== e(   9) =   -23.76335 eV ==== 
     psi = 0.250*[#   2]+0.250*[#   3]+0.250*[#  11]+0.250*[#  12]
    |psi|^2 = 1.000
==== e(  10) =   -23.70654 eV ==== 
     psi = 0.492*[#   1]+0.492*[#  10]+0.003*[#   4]+0.003*[#   5]+0.003*[#  13]
          +0.003*[#  14]
    |psi|^2 = 1.000
==== e(  11) =   -12.16102 eV ==== 
     psi = 0.490*[#   6]+0.490*[#  15]+0.003*[#   8]+0.003*[#   9]+0.003*[#  17]
          +0.003*[#  18]+0.002*[#   1]+0.002*[#  10]
    |psi|^2 = 0.997
==== e(  12) =    -4.55699 eV ==== 
     psi = 0.291*[#   6]+0.291*[#  15]+0.103*[#   8]+0.103*[#   9]+0.103*[#  17]
          +0.103*[#  18]
    |psi|^2 = 0.995
==== e(  13) =    -4.24533 eV ==== 
     psi = 0.498*[#   7]+0.498*[#  16]
    |psi|^2 = 0.997
==== e(  14) =    -3.45156 eV ==== 
     psi = 0.248*[#   8]+0.248*[#   9]+0.248*[#  17]+0.248*[#  18]+0.001*[#   4]
          +0.001*[#   5]+0.001*[#  13]+0.001*[#  14]
    |psi|^2 = 0.996
==== e(  15) =    -2.54786 eV ==== 
     psi = 0.203*[#   6]+0.203*[#  15]+0.145*[#   8]+0.145*[#   9]+0.145*[#  17]
          +0.145*[#  18]
    |psi|^2 = 0.989
==== e(  16) =     0.61792 eV ==== 
     psi = 0.223*[#   8]+0.223*[#   9]+0.223*[#  17]+0.223*[#  18]+0.006*[#   6]
          +0.006*[#  15]+0.001*[#   4]+0.001*[#   5]+0.001*[#  13]+0.001*[#  14]
          
    |psi|^2 = 0.907

 k =   0.1000000000  0.0000000000  0.0000000000
==== e(   1) =   -24.12268 eV ==== 
     psi = 0.241*[#   1]+0.241*[#  10]+0.129*[#   4]+0.129*[#   5]+0.129*[#  13]
          +0.129*[#  14]
    |psi|^2 = 1.000
==== e(   2) =   -24.10915 eV ==== 
     psi = 0.245*[#   4]+0.245*[#   5]+0.245*[#  13]+0.245*[#  14]+0.008*[#   1]
          +0.008*[#  10]+0.001*[#   8]+0.001*[#   9]+0.001*[#  17]+0.001*[#  18]
          
    |psi|^2 = 1.000
==== e(   3) =   -24.10682 eV ==== 
     psi = 0.241*[#   1]+0.241*[#  10]+0.128*[#   4]+0.128*[#   5]+0.128*[#  13]
          +0.128*[#  14]
    |psi|^2 = 1.000
==== e(   4) =   -23.99672 eV ==== 
     psi = 0.250*[#   2]+0.250*[#   3]+0.250*[#  11]+0.250*[#  12]
    |psi|^2 = 1.000
==== e(   5) =   -23.99214 eV ==== 
     psi = 0.250*[#   2]+0.250*[#   3]+0.250*[#  11]+0.250*[#  12]
    |psi|^2 = 1.000
==== e(   6) =   -23.81699 eV ==== 
     psi = 0.241*[#   4]+0.241*[#   5]+0.241*[#  13]+0.241*[#  14]+0.016*[#   1]
          +0.016*[#  10]+0.001*[#   8]+0.001*[#   9]+0.001*[#  17]+0.001*[#  18]
          
    |psi|^2 = 1.000
==== e(   7) =   -23.81349 eV ==== 
     psi = 0.247*[#   4]+0.247*[#   5]+0.247*[#  13]+0.247*[#  14]+0.003*[#   1]
          +0.003*[#  10]+0.001*[#   8]+0.001*[#   9]+0.001*[#  17]+0.001*[#  18]
          
    |psi|^2 = 1.000
==== e(   8) =   -23.76786 eV ==== 
     psi = 0.250*[#   2]+0.250*[#   3]+0.250*[#  11]+0.250*[#  12]
    |psi|^2 = 1.000
==== e(   9) =   -23.76286 eV ==== 
     psi = 0.250*[#   2]+0.250*[#   3]+0.250*[#  11]+0.250*[#  12]
    |psi|^2 = 1.000
==== e(  10) =   -23.70623 eV ==== 
     psi = 0.489*[#   1]+0.489*[#  10]+0.005*[#   4]+0.005*[#   5]+0.005*[#  13]
          +0.005*[#  14]
    |psi|^2 = 1.000
==== e(  11) =   -12.14152 eV ==== 
     psi = 0.487*[#   6]+0.487*[#  15]+0.005*[#   8]+0.005*[#   9]+0.005*[#  17]
          +0.005*[#  18]+0.002*[#   1]+0.002*[#  10]
    |psi|^2 = 0.997
==== e(  12) =    -4.75749 eV ==== 
     psi = 0.285*[#   6]+0.285*[#  15]+0.106*[#   8]+0.106*[#   9]+0.106*[#  17]
          +0.106*[#  18]
    |psi|^2 = 0.996
==== e(  13) =    -4.22517 eV ==== 
     psi = 0.498*[#   7]+0.498*[#  16]
    |psi|^2 = 0.997
==== e(  14) =    -3.49496 eV ==== 
     psi = 0.248*[#   8]+0.248*[#   9]+0.248*[#  17]+0.248*[#  18]+0.001*[#   4]
          +0.001*[#   5]+0.001*[#  13]+0.001*[#  14]
    |psi|^2 = 0.996
==== e(  15) =    -2.37333 eV ==== 
     psi = 0.208*[#   6]+0.208*[#  15]+0.142*[#   8]+0.142*[#   9]+0.142*[#  17]
          +0.142*[#  18]
    |psi|^2 = 0.988
==== e(  16) =     0.60425 eV ==== 
     psi = 0.219*[#   8]+0.219*[#   9]+0.219*[#  17]+0.219*[#  18]+0.008*[#   6]
          +0.008*[#  15]+0.001*[#   4]+0.001*[#   5]+0.001*[#  13]+0.001*[#  14]
          
    |psi|^2 = 0.898

 k =   0.1166666667  0.0000000000  0.0000000000
==== e(   1) =   -24.12890 eV ==== 
     psi = 0.174*[#   1]+0.174*[#  10]+0.162*[#   4]+0.162*[#   5]+0.162*[#  13]
          +0.162*[#  14]
    |psi|^2 = 1.000
==== e(   2) =   -24.11332 eV ==== 
     psi = 0.244*[#   4]+0.244*[#   5]+0.244*[#  13]+0.244*[#  14]+0.010*[#   1]
          +0.010*[#  10]+0.001*[#   8]+0.001*[#   9]+0.001*[#  17]+0.001*[#  18]
          
    |psi|^2 = 1.000
==== e(   3) =   -24.10752 eV ==== 
     psi = 0.303*[#   1]+0.303*[#  10]+0.097*[#   4]+0.097*[#   5]+0.097*[#  13]
          +0.097*[#  14]
    |psi|^2 = 1.000
==== e(   4) =   -23.99730 eV ==== 
     psi = 0.250*[#   2]+0.250*[#   3]+0.250*[#  11]+0.250*[#  12]
    |psi|^2 = 1.000
==== e(   5) =   -23.99108 eV ==== 
     psi = 0.250*[#   2]+0.250*[#   3]+0.250*[#  11]+0.250*[#  12]
    |psi|^2 = 1.000
==== e(   6) =   -23.81173 eV ==== 
     psi = 0.238*[#   4]+0.238*[#   5]+0.238*[#  13]+0.238*[#  14]+0.021*[#   1]
          +0.021*[#  10]+0.001*[#   8]+0.001*[#   9]+0.001*[#  17]+0.001*[#  18]
          
    |psi|^2 = 1.000
==== e(   7) =   -23.80701 eV ==== 
     psi = 0.246*[#   4]+0.246*[#   5]+0.246*[#  13]+0.246*[#  14]+0.006*[#   1]
          +0.006*[#  10]+0.001*[#   8]+0.001*[#   9]+0.001*[#  17]+0.001*[#  18]
          
    |psi|^2 = 1.000
==== e(   8) =   -23.76907 eV ==== 
     psi = 0.250*[#   2]+0.250*[#   3]+0.250*[#  11]+0.250*[#  12]
    |psi|^2 = 1.000
==== e(   9) =   -23.76229 eV ==== 
     psi = 0.250*[#   2]+0.250*[#   3]+0.250*[#  11]+0.250*[#  12]
    |psi|^2 = 1.000
==== e(  10) =   -23.70579 eV ==== 
     psi = 0.484*[#   1]+0.484*[#  10]+0.008*[#   4]+0.008*[#   5]+0.008*[#  13]
          +0.008*[#  14]
    |psi|^2 = 1.000
==== e(  11) =   -12.11850 eV ==== 
     psi = 0.484*[#   6]+0.484*[#  15]+0.006*[#   8]+0.006*[#   9]+0.006*[#  17]
          +0.006*[#  18]+0.002*[#   1]+0.002*[#  10]
    |psi|^2 = 0.997
==== e(  12) =    -4.95744 eV ==== 
     psi = 0.280*[#   6]+0.280*[#  15]+0.108*[#   8]+0.108*[#   9]+0.108*[#  17]
          +0.108*[#  18]
    |psi|^2 = 0.996
==== e(  13) =    -4.20138 eV ==== 
     psi = 0.498*[#   7]+0.498*[#  16]
    |psi|^2 = 0.997
==== e(  14) =    -3.54542 eV ==== 
     psi = 0.248*[#   8]+0.248*[#   9]+0.248*[#  17]+0.248*[#  18]+0.001*[#   4]
          +0.001*[#   5]+0.001*[#  13]+0.001*[#  14]
    |psi|^2 = 0.996
==== e(  15) =    -2.20497 eV ==== 
     psi = 0.212*[#   6]+0.212*[#  15]+0.140*[#   8]+0.140*[#   9]+0.140*[#  17]
          +0.140*[#  18]
    |psi|^2 = 0.987
==== e(  16) =     0.59241 eV ==== 
     psi = 0.216*[#   8]+0.216*[#   9]+0.216*[#  17]+0.216*[#  18]+0.011*[#   6]
          +0.011*[#  15]+0.001*[#   4]+0.001*[#   5]+0.001*[#  13]+0.001*[#  14]
          
    |psi|^2 = 0.890

 k =   0.1333333333  0.0000000000  0.0000000000
==== e(   1) =   -24.13615 eV ==== 
     psi = 0.182*[#   4]+0.182*[#   5]+0.182*[#  13]+0.182*[#  14]+0.134*[#   1]
          +0.134*[#  10]
    |psi|^2 = 1.000
==== e(   2) =   -24.11778 eV ==== 
     psi = 0.242*[#   4]+0.242*[#   5]+0.242*[#  13]+0.242*[#  14]+0.013*[#   1]
          +0.013*[#  10]+0.001*[#   8]+0.001*[#   9]+0.001*[#  17]+0.001*[#  18]
          
    |psi|^2 = 1.000
==== e(   3) =   -24.10783 eV ==== 
     psi = 0.338*[#   1]+0.338*[#  10]+0.080*[#   4]+0.080*[#   5]+0.080*[#  13]
          +0.080*[#  14]+0.001*[#   6]+0.001*[#  15]
    |psi|^2 = 1.000
==== e(   4) =   -23.99796 eV ==== 
     psi = 0.250*[#   2]+0.250*[#   3]+0.250*[#  11]+0.250*[#  12]
    |psi|^2 = 1.000
==== e(   5) =   -23.98986 eV ==== 
     psi = 0.250*[#   2]+0.250*[#   3]+0.250*[#  11]+0.250*[#  12]
    |psi|^2 = 1.000
==== e(   6) =   -23.80608 eV ==== 
     psi = 0.236*[#   4]+0.236*[#   5]+0.236*[#  13]+0.236*[#  14]+0.026*[#   1]
          +0.026*[#  10]+0.001*[#   8]+0.001*[#   9]+0.001*[#  17]+0.001*[#  18]
          
    |psi|^2 = 1.000
==== e(   7) =   -23.80002 eV ==== 
     psi = 0.244*[#   4]+0.244*[#   5]+0.244*[#  13]+0.244*[#  14]+0.010*[#   1]
          +0.010*[#  10]+0.001*[#   8]+0.001*[#   9]+0.001*[#  17]+0.001*[#  18]
          
    |psi|^2 = 1.000
==== e(   8) =   -23.77046 eV ==== 
     psi = 0.250*[#   2]+0.250*[#   3]+0.250*[#  11]+0.250*[#  12]
    |psi|^2 = 1.000
==== e(   9) =   -23.76164 eV ==== 
     psi = 0.250*[#   2]+0.250*[#   3]+0.250*[#  11]+0.250*[#  12]
    |psi|^2 = 1.000
==== e(  10) =   -23.70518 eV ==== 
     psi = 0.477*[#   1]+0.477*[#  10]+0.011*[#   4]+0.011*[#   5]+0.011*[#  13]
          +0.011*[#  14]
    |psi|^2 = 1.000
==== e(  11) =   -12.09197 eV ==== 
     psi = 0.480*[#   6]+0.480*[#  15]+0.008*[#   8]+0.008*[#   9]+0.008*[#  17]
          +0.008*[#  18]+0.002*[#   1]+0.002*[#  10]
    |psi|^2 = 0.997
==== e(  12) =    -5.15624 eV ==== 
     psi = 0.277*[#   6]+0.277*[#  15]+0.110*[#   8]+0.110*[#   9]+0.110*[#  17]
          +0.110*[#  18]
    |psi|^2 = 0.996
==== e(  13) =    -4.17400 eV ==== 
     psi = 0.498*[#   7]+0.498*[#  16]
    |psi|^2 = 0.997
==== e(  14) =    -3.60253 eV ==== 
     psi = 0.248*[#   8]+0.248*[#   9]+0.248*[#  17]+0.248*[#  18]+0.001*[#   4]
          +0.001*[#   5]+0.001*[#  13]+0.001*[#  14]
    |psi|^2 = 0.996
==== e(  15) =    -2.04353 eV ==== 
     psi = 0.213*[#   6]+0.213*[#  15]+0.139*[#   8]+0.139*[#   9]+0.139*[#  17]
          +0.139*[#  18]
    |psi|^2 = 0.986
==== e(  16) =     0.58346 eV ==== 
     psi = 0.213*[#   8]+0.213*[#   9]+0.213*[#  17]+0.213*[#  18]+0.014*[#   6]
          +0.014*[#  15]+0.001*[#   4]+0.001*[#   5]+0.001*[#  13]+0.001*[#  14]
          
    |psi|^2 = 0.883

 k =   0.1500000000  0.0000000000  0.0000000000
==== e(   1) =   -24.14412 eV ==== 
     psi = 0.195*[#   4]+0.195*[#   5]+0.195*[#  13]+0.195*[#  14]+0.108*[#   1]
          +0.108*[#  10]
    |psi|^2 = 1.000
==== e(   2) =   -24.12242 eV ==== 
     psi = 0.241*[#   4]+0.241*[#   5]+0.241*[#  13]+0.241*[#  14]+0.016*[#   1]
          +0.016*[#  10]+0.001*[#   8]+0.001*[#   9]+0.001*[#  17]+0.001*[#  18]
          
    |psi|^2 = 1.000
==== e(   3) =   -24.10795 eV ==== 
     psi = 0.358*[#   1]+0.358*[#  10]+0.070*[#   4]+0.070*[#   5]+0.070*[#  13]
          +0.070*[#  14]+0.001*[#   6]+0.001*[#  15]
    |psi|^2 = 1.000
==== e(   4) =   -23.99869 eV ==== 
     psi = 0.250*[#   2]+0.250*[#   3]+0.250*[#  11]+0.250*[#  12]
    |psi|^2 = 1.000
==== e(   5) =   -23.98848 eV ==== 
     psi = 0.250*[#   2]+0.250*[#   3]+0.250*[#  11]+0.250*[#  12]
    |psi|^2 = 1.000
==== e(   6) =   -23.80015 eV ==== 
     psi = 0.233*[#   4]+0.233*[#   5]+0.233*[#  13]+0.233*[#  14]+0.032*[#   1]
          +0.032*[#  10]+0.001*[#   8]+0.001*[#   9]+0.001*[#  17]+0.001*[#  18]
          
    |psi|^2 = 1.000
==== e(   7) =   -23.79269 eV ==== 
     psi = 0.241*[#   4]+0.241*[#   5]+0.241*[#  13]+0.241*[#  14]+0.016*[#   1]
          +0.016*[#  10]+0.001*[#   8]+0.001*[#   9]+0.001*[#  17]+0.001*[#  18]
          
    |psi|^2 = 1.000
==== e(   8) =   -23.77202 eV ==== 
     psi = 0.250*[#   2]+0.250*[#   3]+0.250*[#  11]+0.250*[#  12]
    |psi|^2 = 1.000
==== e(   9) =   -23.76091 eV ==== 
     psi = 0.250*[#   2]+0.250*[#   3]+0.250*[#  11]+0.250*[#  12]
    |psi|^2 = 1.000
==== e(  10) =   -23.70435 eV ==== 
     psi = 0.467*[#   1]+0.467*[#  10]+0.016*[#   4]+0.016*[#   5]+0.016*[#  13]
          +0.016*[#  14]
    |psi|^2 = 1.000
==== e(  11) =   -12.06194 eV ==== 
     psi = 0.476*[#   6]+0.476*[#  15]+0.010*[#   8]+0.010*[#   9]+0.010*[#  17]
          +0.010*[#  18]+0.002*[#   1]+0.002*[#  10]
    |psi|^2 = 0.997
==== e(  12) =    -5.35342 eV ==== 
     psi = 0.276*[#   6]+0.276*[#  15]+0.111*[#   8]+0.111*[#   9]+0.111*[#  17]
          +0.111*[#  18]
    |psi|^2 = 0.997
==== e(  13) =    -4.14306 eV ==== 
     psi = 0.498*[#   7]+0.498*[#  16]
    |psi|^2 = 0.996
==== e(  14) =    -3.66583 eV ==== 
     psi = 0.248*[#   8]+0.248*[#   9]+0.248*[#  17]+0.248*[#  18]+0.001*[#   4]
          +0.001*[#   5]+0.001*[#  13]+0.001*[#  14]
    |psi|^2 = 0.996
==== e(  15) =    -1.88942 eV ==== 
     psi = 0.214*[#   6]+0.214*[#  15]+0.139*[#   8]+0.139*[#   9]+0.139*[#  17]
          +0.139*[#  18]
    |psi|^2 = 0.985
==== e(  16) =     0.57826 eV ==== 
     psi = 0.210*[#   8]+0.210*[#   9]+0.210*[#  17]+0.210*[#  18]+0.017*[#   6]
          +0.017*[#  15]+0.001*[#   4]+0.001*[#   5]+0.001*[#  13]+0.001*[#  14]
          
    |psi|^2 = 0.877

 k =   0.1666666667  0.0000000000  0.0000000000
==== e(   1) =   -24.15262 eV ==== 
     psi = 0.203*[#   4]+0.203*[#   5]+0.203*[#  13]+0.203*[#  14]+0.091*[#   1]
          +0.091*[#  10]
    |psi|^2 = 1.000
==== e(   2) =   -24.12714 eV ==== 
     psi = 0.239*[#   4]+0.239*[#   5]+0.239*[#  13]+0.239*[#  14]+0.019*[#   1]
          +0.019*[#  10]+0.001*[#   8]+0.001*[#   9]+0.001*[#  17]+0.001*[#  18]
          
    |psi|^2 = 1.000
==== e(   3) =   -24.10795 eV ==== 
     psi = 0.370*[#   1]+0.370*[#  10]+0.064*[#   4]+0.064*[#   5]+0.064*[#  13]
          +0.064*[#  14]+0.001*[#   6]+0.001*[#  15]
    |psi|^2 = 1.000
==== e(   4) =   -23.99950 eV ==== 
     psi = 0.250*[#   2]+0.250*[#   3]+0.250*[#  11]+0.250*[#  12]
    |psi|^2 = 1.000
==== e(   5) =   -23.98694 eV ==== 
     psi = 0.250*[#   2]+0.250*[#   3]+0.250*[#  11]+0.250*[#  12]
    |psi|^2 = 1.000
==== e(   6) =   -23.79405 eV ==== 
     psi = 0.230*[#   4]+0.230*[#   5]+0.230*[#  13]+0.230*[#  14]+0.037*[#   1]
          +0.037*[#  10]+0.001*[#   8]+0.001*[#   9]+0.001*[#  17]+0.001*[#  18]
          
    |psi|^2 = 1.000
==== e(   7) =   -23.78521 eV ==== 
     psi = 0.236*[#   4]+0.236*[#   5]+0.236*[#  13]+0.236*[#  14]+0.026*[#   1]
          +0.026*[#  10]+0.001*[#   8]+0.001*[#   9]+0.001*[#  17]+0.001*[#  18]
          
    |psi|^2 = 1.000
==== e(   8) =   -23.77376 eV ==== 
     psi = 0.250*[#   2]+0.250*[#   3]+0.250*[#  11]+0.250*[#  12]
    |psi|^2 = 1.000
==== e(   9) =   -23.76011 eV ==== 
     psi = 0.250*[#   2]+0.250*[#   3]+0.250*[#  11]+0.250*[#  12]
    |psi|^2 = 1.000
==== e(  10) =   -23.70321 eV ==== 
     psi = 0.454*[#   1]+0.454*[#  10]+0.023*[#   4]+0.023*[#   5]+0.023*[#  13]
          +0.023*[#  14]
    |psi|^2 = 1.000
==== e(  11) =   -12.02844 eV ==== 
     psi = 0.472*[#   6]+0.472*[#  15]+0.012*[#   8]+0.012*[#   9]+0.012*[#  17]
          +0.012*[#  18]+0.002*[#   1]+0.002*[#  10]
    |psi|^2 = 0.997
==== e(  12) =    -5.54863 eV ==== 
     psi = 0.274*[#   6]+0.274*[#  15]+0.111*[#   8]+0.111*[#   9]+0.111*[#  17]
          +0.111*[#  18]
    |psi|^2 = 0.997
==== e(  13) =    -4.10859 eV ==== 
     psi = 0.498*[#   7]+0.498*[#  16]
    |psi|^2 = 0.996
==== e(  14) =    -3.73480 eV ==== 
     psi = 0.247*[#   8]+0.247*[#   9]+0.247*[#  17]+0.247*[#  18]+0.001*[#   4]
          +0.001*[#   5]+0.001*[#   6]+0.001*[#  13]+0.001*[#  14]+0.001*[#  15]
          
    |psi|^2 = 0.997
==== e(  15) =    -1.74273 eV ==== 
     psi = 0.213*[#   6]+0.213*[#  15]+0.139*[#   8]+0.139*[#   9]+0.139*[#  17]
          +0.139*[#  18]
    |psi|^2 = 0.984
==== e(  16) =     0.57750 eV ==== 
     psi = 0.207*[#   8]+0.207*[#   9]+0.207*[#  17]+0.207*[#  18]+0.020*[#   6]
          +0.020*[#  15]+0.001*[#   4]+0.001*[#   5]+0.001*[#  13]+0.001*[#  14]
          
    |psi|^2 = 0.871

 k =   0.1833333333  0.0000000000  0.0000000000
==== e(   1) =   -24.16151 eV ==== 
     psi = 0.210*[#   4]+0.210*[#   5]+0.210*[#  13]+0.210*[#  14]+0.078*[#   1]
          +0.078*[#  10]
    |psi|^2 = 1.000
==== e(   2) =   -24.13188 eV ==== 
     psi = 0.238*[#   4]+0.238*[#   5]+0.238*[#  13]+0.238*[#  14]+0.022*[#   1]
          +0.022*[#  10]+0.001*[#   8]+0.001*[#   9]+0.001*[#  17]+0.001*[#  18]
          
    |psi|^2 = 1.000
==== e(   3) =   -24.10790 eV ==== 
     psi = 0.377*[#   1]+0.377*[#  10]+0.061*[#   4]+0.061*[#   5]+0.061*[#  13]
          +0.061*[#  14]+0.001*[#   6]+0.001*[#  15]
    |psi|^2 = 1.000
==== e(   4) =   -24.00038 eV ==== 
     psi = 0.250*[#   2]+0.250*[#   3]+0.250*[#  11]+0.250*[#  12]
    |psi|^2 = 1.000
==== e(   5) =   -23.98525 eV ==== 
     psi = 0.250*[#   2]+0.250*[#   3]+0.250*[#  11]+0.250*[#  12]
    |psi|^2 = 1.000
==== e(   6) =   -23.78787 eV ==== 
     psi = 0.227*[#   4]+0.227*[#   5]+0.227*[#  13]+0.227*[#  14]+0.043*[#   1]
          +0.043*[#  10]+0.001*[#   8]+0.001*[#   9]+0.001*[#  17]+0.001*[#  18]
          
    |psi|^2 = 1.000
==== e(   7) =   -23.77776 eV ==== 
     psi = 0.229*[#   4]+0.229*[#   5]+0.229*[#  13]+0.229*[#  14]+0.041*[#   1]
          +0.041*[#  10]+0.001*[#   8]+0.001*[#   9]+0.001*[#  17]+0.001*[#  18]
          
    |psi|^2 = 1.000
==== e(   8) =   -23.77567 eV ==== 
     psi = 0.250*[#   2]+0.250*[#   3]+0.250*[#  11]+0.250*[#  12]
    |psi|^2 = 1.000
==== e(   9) =   -23.75925 eV ==== 
     psi = 0.250*[#   2]+0.250*[#   3]+0.250*[#  11]+0.250*[#  12]
    |psi|^2 = 1.000
==== e(  10) =   -23.70167 eV ==== 
     psi = 0.436*[#   1]+0.436*[#  10]+0.031*[#   4]+0.031*[#   5]+0.031*[#  13]
          +0.031*[#  14]
    |psi|^2 = 1.000
==== e(  11) =   -11.99148 eV ==== 
     psi = 0.468*[#   6]+0.468*[#  15]+0.015*[#   8]+0.015*[#   9]+0.015*[#  17]
          +0.015*[#  18]+0.002*[#   1]+0.002*[#  10]
    |psi|^2 = 0.997
==== e(  12) =    -5.74156 eV ==== 
     psi = 0.274*[#   6]+0.274*[#  15]+0.112*[#   8]+0.112*[#   9]+0.112*[#  17]
          +0.112*[#  18]
    |psi|^2 = 0.997
==== e(  13) =    -4.07062 eV ==== 
     psi = 0.498*[#   7]+0.498*[#  16]
    |psi|^2 = 0.996
==== e(  14) =    -3.80889 eV ==== 
     psi = 0.247*[#   8]+0.247*[#   9]+0.247*[#  17]+0.247*[#  18]+0.002*[#   6]
          +0.002*[#  15]+0.001*[#   4]+0.001*[#   5]+0.001*[#  13]+0.001*[#  14]
          
    |psi|^2 = 0.997
==== e(  15) =    -1.60330 eV ==== 
     psi = 0.212*[#   6]+0.212*[#  15]+0.139*[#   8]+0.139*[#   9]+0.139*[#  17]
          +0.139*[#  18]
    |psi|^2 = 0.983
==== e(  16) =     0.58169 eV ==== 
     psi = 0.203*[#   8]+0.203*[#   9]+0.203*[#  17]+0.203*[#  18]+0.024*[#   6]
          +0.024*[#  15]+0.001*[#   4]+0.001*[#   5]+0.001*[#  13]+0.001*[#  14]
          
    |psi|^2 = 0.865

 k =   0.2000000000  0.0000000000  0.0000000000
==== e(   1) =   -24.17068 eV ==== 
     psi = 0.215*[#   4]+0.215*[#   5]+0.215*[#  13]+0.215*[#  14]+0.068*[#   1]
          +0.068*[#  10]
    |psi|^2 = 1.000
==== e(   2) =   -24.13656 eV ==== 
     psi = 0.236*[#   4]+0.236*[#   5]+0.236*[#  13]+0.236*[#  14]+0.026*[#   1]
          +0.026*[#  10]+0.001*[#   8]+0.001*[#   9]+0.001*[#  17]+0.001*[#  18]
          
    |psi|^2 = 1.000
==== e(   3) =   -24.10781 eV ==== 
     psi = 0.381*[#   1]+0.381*[#  10]+0.059*[#   4]+0.059*[#   5]+0.059*[#  13]
          +0.059*[#  14]+0.001*[#   6]+0.001*[#  15]
    |psi|^2 = 1.000
==== e(   4) =   -24.00132 eV ==== 
     psi = 0.250*[#   2]+0.250*[#   3]+0.250*[#  11]+0.250*[#  12]
    |psi|^2 = 1.000
==== e(   5) =   -23.98339 eV ==== 
     psi = 0.250*[#   2]+0.250*[#   3]+0.250*[#  11]+0.250*[#  12]
    |psi|^2 = 1.000
==== e(   6) =   -23.78168 eV ==== 
     psi = 0.224*[#   4]+0.224*[#   5]+0.224*[#  13]+0.224*[#  14]+0.049*[#   1]
          +0.049*[#  10]
    |psi|^2 = 1.000
==== e(   7) =   -23.77775 eV ==== 
     psi = 0.250*[#   2]+0.250*[#   3]+0.250*[#  11]+0.250*[#  12]
    |psi|^2 = 1.000
==== e(   8) =   -23.77056 eV ==== 
     psi = 0.219*[#   4]+0.219*[#   5]+0.219*[#  13]+0.219*[#  14]+0.061*[#   1]
          +0.061*[#  10]
    |psi|^2 = 1.000
==== e(   9) =   -23.75832 eV ==== 
     psi = 0.250*[#   2]+0.250*[#   3]+0.250*[#  11]+0.250*[#  12]
    |psi|^2 = 1.000
==== e(  10) =   -23.69960 eV ==== 
     psi = 0.413*[#   1]+0.413*[#  10]+0.043*[#   4]+0.043*[#   5]+0.043*[#  13]
          +0.043*[#  14]
    |psi|^2 = 1.000
==== e(  11) =   -11.95109 eV ==== 
     psi = 0.463*[#   6]+0.463*[#  15]+0.017*[#   8]+0.017*[#   9]+0.017*[#  17]
          +0.017*[#  18]+0.002*[#   1]+0.002*[#  10]
    |psi|^2 = 0.997
==== e(  12) =    -5.93198 eV ==== 
     psi = 0.273*[#   6]+0.273*[#  15]+0.112*[#   8]+0.112*[#   9]+0.112*[#  17]
          +0.112*[#  18]
    |psi|^2 = 0.997
==== e(  13) =    -4.02920 eV ==== 
     psi = 0.498*[#   7]+0.498*[#  16]
    |psi|^2 = 0.996
==== e(  14) =    -3.88753 eV ==== 
     psi = 0.247*[#   8]+0.247*[#   9]+0.247*[#  17]+0.247*[#  18]+0.002*[#   6]
          +0.002*[#  15]+0.001*[#   4]+0.001*[#   5]+0.001*[#  13]+0.001*[#  14]
          
    |psi|^2 = 0.997
==== e(  15) =    -1.47068 eV ==== 
     psi = 0.210*[#   6]+0.210*[#  15]+0.140*[#   8]+0.140*[#   9]+0.140*[#  17]
          +0.140*[#  18]
    |psi|^2 = 0.981
==== e(  16) =     0.59119 eV ==== 
     psi = 0.200*[#   8]+0.200*[#   9]+0.200*[#  17]+0.200*[#  18]+0.027*[#   6]
          +0.027*[#  15]
    |psi|^2 = 0.859

 k =   0.2166666667  0.0000000000  0.0000000000
==== e(   1) =   -24.18002 eV ==== 
     psi = 0.219*[#   4]+0.219*[#   5]+0.219*[#  13]+0.219*[#  14]+0.060*[#   1]
          +0.060*[#  10]
    |psi|^2 = 1.000
==== e(   2) =   -24.14112 eV ==== 
     psi = 0.234*[#   4]+0.234*[#   5]+0.234*[#  13]+0.234*[#  14]+0.029*[#   1]
          +0.029*[#  10]+0.001*[#   8]+0.001*[#   9]+0.001*[#  17]+0.001*[#  18]
          
    |psi|^2 = 1.000
==== e(   3) =   -24.10771 eV ==== 
     psi = 0.383*[#   1]+0.383*[#  10]+0.058*[#   4]+0.058*[#   5]+0.058*[#  13]
          +0.058*[#  14]+0.001*[#   6]+0.001*[#  15]
    |psi|^2 = 1.000
==== e(   4) =   -24.00232 eV ==== 
     psi = 0.250*[#   2]+0.250*[#   3]+0.250*[#  11]+0.250*[#  12]
    |psi|^2 = 1.000
==== e(   5) =   -23.98138 eV ==== 
     psi = 0.250*[#   2]+0.250*[#   3]+0.250*[#  11]+0.250*[#  12]
    |psi|^2 = 1.000
==== e(   6) =   -23.77999 eV ==== 
     psi = 0.250*[#   2]+0.250*[#   3]+0.250*[#  11]+0.250*[#  12]
    |psi|^2 = 1.000
==== e(   7) =   -23.77557 eV ==== 
     psi = 0.221*[#   4]+0.221*[#   5]+0.221*[#  13]+0.221*[#  14]+0.055*[#   1]
          +0.055*[#  10]
    |psi|^2 = 1.000
==== e(   8) =   -23.76384 eV ==== 
     psi = 0.205*[#   4]+0.205*[#   5]+0.205*[#  13]+0.205*[#  14]+0.088*[#   1]
          +0.088*[#  10]
    |psi|^2 = 1.000
==== e(   9) =   -23.75734 eV ==== 
     psi = 0.250*[#   2]+0.250*[#   3]+0.250*[#  11]+0.250*[#  12]
    |psi|^2 = 1.000
==== e(  10) =   -23.69685 eV ==== 
     psi = 0.382*[#   1]+0.382*[#  10]+0.059*[#   4]+0.059*[#   5]+0.059*[#  13]
          +0.059*[#  14]
    |psi|^2 = 1.000
==== e(  11) =   -11.90729 eV ==== 
     psi = 0.458*[#   6]+0.458*[#  15]+0.019*[#   8]+0.019*[#   9]+0.019*[#  17]
          +0.019*[#  18]+0.001*[#   1]+0.001*[#  10]
    |psi|^2 = 0.997
==== e(  12) =    -6.11968 eV ==== 
     psi = 0.274*[#   6]+0.274*[#  15]+0.112*[#   8]+0.112*[#   9]+0.112*[#  17]
          +0.112*[#  18]
    |psi|^2 = 0.998
==== e(  13) =    -3.98437 eV ==== 
     psi = 0.498*[#   7]+0.498*[#  16]
    |psi|^2 = 0.996
==== e(  14) =    -3.97013 eV ==== 
     psi = 0.247*[#   8]+0.247*[#   9]+0.247*[#  17]+0.247*[#  18]+0.003*[#   6]
          +0.003*[#  15]
    |psi|^2 = 0.997
==== e(  15) =    -1.34427 eV ==== 
     psi = 0.207*[#   6]+0.207*[#  15]+0.141*[#   8]+0.141*[#   9]+0.141*[#  17]
          +0.141*[#  18]
    |psi|^2 = 0.980
==== e(  16) =     0.60624 eV ==== 
     psi = 0.197*[#   8]+0.197*[#   9]+0.197*[#  17]+0.197*[#  18]+0.030*[#   6]
          +0.030*[#  15]
    |psi|^2 = 0.854

 k =   0.2333333333  0.0000000000  0.0000000000
==== e(   1) =   -24.18947 eV ==== 
     psi = 0.222*[#   4]+0.222*[#   5]+0.222*[#  13]+0.222*[#  14]+0.054*[#   1]
          +0.054*[#  10]
    |psi|^2 = 1.000
==== e(   2) =   -24.14549 eV ==== 
     psi = 0.232*[#   4]+0.232*[#   5]+0.232*[#  13]+0.232*[#  14]+0.033*[#   1]
          +0.033*[#  10]
    |psi|^2 = 1.000
==== e(   3) =   -24.10761 eV ==== 
     psi = 0.383*[#   1]+0.383*[#  10]+0.058*[#   4]+0.058*[#   5]+0.058*[#  13]
          +0.058*[#  14]+0.001*[#   6]+0.001*[#  15]
    |psi|^2 = 1.000
==== e(   4) =   -24.00337 eV ==== 
     psi = 0.250*[#   2]+0.250*[#   3]+0.250*[#  11]+0.250*[#  12]
    |psi|^2 = 1.000
==== e(   5) =   -23.97922 eV ==== 
     psi = 0.250*[#   2]+0.250*[#   3]+0.250*[#  11]+0.250*[#  12]
    |psi|^2 = 1.000
==== e(   6) =   -23.78239 eV ==== 
     psi = 0.250*[#   2]+0.250*[#   3]+0.250*[#  11]+0.250*[#  12]
    |psi|^2 = 1.000
==== e(   7) =   -23.76959 eV ==== 
     psi = 0.218*[#   4]+0.218*[#   5]+0.218*[#  13]+0.218*[#  14]+0.062*[#   1]
          +0.062*[#  10]
    |psi|^2 = 1.000
==== e(   8) =   -23.75781 eV ==== 
     psi = 0.188*[#   4]+0.188*[#   5]+0.188*[#  13]+0.188*[#  14]+0.122*[#   1]
          +0.122*[#  10]
    |psi|^2 = 1.000
==== e(   9) =   -23.75631 eV ==== 
     psi = 0.250*[#   2]+0.250*[#   3]+0.250*[#  11]+0.250*[#  12]
    |psi|^2 = 1.000
==== e(  10) =   -23.69329 eV ==== 
     psi = 0.344*[#   1]+0.344*[#  10]+0.077*[#   4]+0.077*[#   5]+0.077*[#  13]
          +0.077*[#  14]
    |psi|^2 = 1.000
==== e(  11) =   -11.86013 eV ==== 
     psi = 0.453*[#   6]+0.453*[#  15]+0.022*[#   8]+0.022*[#   9]+0.022*[#  17]
          +0.022*[#  18]+0.001*[#   1]+0.001*[#  10]
    |psi|^2 = 0.997
==== e(  12) =    -6.30446 eV ==== 
     psi = 0.274*[#   6]+0.274*[#  15]+0.111*[#   8]+0.111*[#   9]+0.111*[#  17]
          +0.111*[#  18]
    |psi|^2 = 0.998
==== e(  13) =    -4.05608 eV ==== 
     psi = 0.247*[#   8]+0.247*[#   9]+0.247*[#  17]+0.247*[#  18]+0.003*[#   6]
          +0.003*[#  15]
    |psi|^2 = 0.997
==== e(  14) =    -3.93620 eV ==== 
     psi = 0.497*[#   7]+0.497*[#  16]
    |psi|^2 = 0.995
==== e(  15) =    -1.22329 eV ==== 
     psi = 0.204*[#   6]+0.204*[#  15]+0.142*[#   8]+0.142*[#   9]+0.142*[#  17]
          +0.142*[#  18]
    |psi|^2 = 0.978
==== e(  16) =     0.62696 eV ==== 
     psi = 0.194*[#   8]+0.194*[#   9]+0.194*[#  17]+0.194*[#  18]+0.034*[#   6]
          +0.034*[#  15]
    |psi|^2 = 0.848

 k =   0.2500000000  0.0000000000  0.0000000000
==== e(   1) =   -24.19896 eV ==== 
     psi = 0.225*[#   4]+0.225*[#   5]+0.225*[#  13]+0.225*[#  14]+0.048*[#   1]
          +0.048*[#  10]
    |psi|^2 = 1.000
==== e(   2) =   -24.14964 eV ==== 
     psi = 0.230*[#   4]+0.230*[#   5]+0.230*[#  13]+0.230*[#  14]+0.037*[#   1]
          +0.037*[#  10]
    |psi|^2 = 1.000
==== e(   3) =   -24.10752 eV ==== 
     psi = 0.382*[#   1]+0.382*[#  10]+0.058*[#   4]+0.058*[#   5]+0.058*[#  13]
          +0.058*[#  14]+0.001*[#   6]+0.001*[#  15]
    |psi|^2 = 1.000
==== e(   4) =   -24.00447 eV ==== 
     psi = 0.250*[#   2]+0.250*[#   3]+0.250*[#  11]+0.250*[#  12]
    |psi|^2 = 1.000
==== e(   5) =   -23.97691 eV ==== 
     psi = 0.250*[#   2]+0.250*[#   3]+0.250*[#  11]+0.250*[#  12]
    |psi|^2 = 1.000
==== e(   6) =   -23.78495 eV ==== 
     psi = 0.250*[#   2]+0.250*[#   3]+0.250*[#  11]+0.250*[#  12]
    |psi|^2 = 1.000
==== e(   7) =   -23.76378 eV ==== 
     psi = 0.215*[#   4]+0.215*[#   5]+0.215*[#  13]+0.215*[#  14]+0.068*[#   1]
          +0.068*[#  10]
    |psi|^2 = 1.000
==== e(   8) =   -23.75524 eV ==== 
     psi = 0.250*[#   2]+0.250*[#   3]+0.250*[#  11]+0.250*[#  12]
    |psi|^2 = 1.000
==== e(   9) =   -23.75262 eV ==== 
     psi = 0.169*[#   4]+0.169*[#   5]+0.169*[#  13]+0.169*[#  14]+0.161*[#   1]
          +0.161*[#  10]
    |psi|^2 = 1.000
==== e(  10) =   -23.68882 eV ==== 
     psi = 0.301*[#   1]+0.301*[#  10]+0.099*[#   4]+0.099*[#   5]+0.099*[#  13]
          +0.099*[#  14]
    |psi|^2 = 1.000
==== e(  11) =   -11.80963 eV ==== 
     psi = 0.448*[#   6]+0.448*[#  15]+0.024*[#   8]+0.024*[#   9]+0.024*[#  17]
          +0.024*[#  18]+0.001*[#   1]+0.001*[#  10]
    |psi|^2 = 0.997
==== e(  12) =    -6.48617 eV ==== 
     psi = 0.275*[#   6]+0.275*[#  15]+0.111*[#   8]+0.111*[#   9]+0.111*[#  17]
          +0.111*[#  18]
    |psi|^2 = 0.998
==== e(  13) =    -4.14480 eV ==== 
     psi = 0.246*[#   8]+0.246*[#   9]+0.246*[#  17]+0.246*[#  18]+0.004*[#   6]
          +0.004*[#  15]
    |psi|^2 = 0.997
==== e(  14) =    -3.88473 eV ==== 
     psi = 0.497*[#   7]+0.497*[#  16]
    |psi|^2 = 0.995
==== e(  15) =    -1.10692 eV ==== 
     psi = 0.202*[#   6]+0.202*[#  15]+0.143*[#   8]+0.143*[#   9]+0.143*[#  17]
          +0.143*[#  18]
    |psi|^2 = 0.977
==== e(  16) =     0.65341 eV ==== 
     psi = 0.191*[#   8]+0.191*[#   9]+0.191*[#  17]+0.191*[#  18]+0.037*[#   6]
          +0.037*[#  15]
    |psi|^2 = 0.841

 k =   0.2666666667  0.0000000000  0.0000000000
==== e(   1) =   -24.20842 eV ==== 
     psi = 0.228*[#   4]+0.228*[#   5]+0.228*[#  13]+0.228*[#  14]+0.043*[#   1]
          +0.043*[#  10]
    |psi|^2 = 1.000
==== e(   2) =   -24.15353 eV ==== 
     psi = 0.228*[#   4]+0.228*[#   5]+0.228*[#  13]+0.228*[#  14]+0.041*[#   1]
          +0.041*[#  10]
    |psi|^2 = 1.000
==== e(   3) =   -24.10746 eV ==== 
     psi = 0.381*[#   1]+0.381*[#  10]+0.059*[#   4]+0.059*[#   5]+0.059*[#  13]
          +0.059*[#  14]+0.001*[#   6]+0.001*[#  15]
    |psi|^2 = 1.000
==== e(   4) =   -24.00561 eV ==== 
     psi = 0.250*[#   2]+0.250*[#   3]+0.250*[#  11]+0.250*[#  12]
    |psi|^2 = 1.000
==== e(   5) =   -23.97444 eV ==== 
     psi = 0.250*[#   2]+0.250*[#   3]+0.250*[#  11]+0.250*[#  12]
    |psi|^2 = 1.000
==== e(   6) =   -23.78766 eV ==== 
     psi = 0.250*[#   2]+0.250*[#   3]+0.250*[#  11]+0.250*[#  12]
    |psi|^2 = 1.000
==== e(   7) =   -23.75821 eV ==== 
     psi = 0.212*[#   4]+0.212*[#   5]+0.212*[#  13]+0.212*[#  14]+0.075*[#   1]
          +0.075*[#  10]
    |psi|^2 = 1.000
==== e(   8) =   -23.75413 eV ==== 
     psi = 0.250*[#   2]+0.250*[#   3]+0.250*[#  11]+0.250*[#  12]
    |psi|^2 = 1.000
==== e(   9) =   -23.74836 eV ==== 
     psi = 0.202*[#   1]+0.202*[#  10]+0.148*[#   4]+0.148*[#   5]+0.148*[#  13]
          +0.148*[#  14]
    |psi|^2 = 1.000
==== e(  10) =   -23.68342 eV ==== 
     psi = 0.256*[#   1]+0.256*[#  10]+0.121*[#   4]+0.121*[#   5]+0.121*[#  13]
          +0.121*[#  14]
    |psi|^2 = 1.000
==== e(  11) =   -11.75584 eV ==== 
     psi = 0.443*[#   6]+0.443*[#  15]+0.027*[#   8]+0.027*[#   9]+0.027*[#  17]
          +0.027*[#  18]+0.001*[#   1]+0.001*[#  10]
    |psi|^2 = 0.997
==== e(  12) =    -6.66468 eV ==== 
     psi = 0.276*[#   6]+0.276*[#  15]+0.111*[#   8]+0.111*[#   9]+0.111*[#  17]
          +0.111*[#  18]
    |psi|^2 = 0.998
==== e(  13) =    -4.23569 eV ==== 
     psi = 0.246*[#   8]+0.246*[#   9]+0.246*[#  17]+0.246*[#  18]+0.004*[#   6]
          +0.004*[#  15]
    |psi|^2 = 0.997
==== e(  14) =    -3.83004 eV ==== 
     psi = 0.497*[#   7]+0.497*[#  16]
    |psi|^2 = 0.995
==== e(  15) =    -0.99433 eV ==== 
     psi = 0.199*[#   6]+0.199*[#  15]+0.144*[#   8]+0.144*[#   9]+0.144*[#  17]
          +0.144*[#  18]
    |psi|^2 = 0.975
==== e(  16) =     0.68554 eV ==== 
     psi = 0.188*[#   8]+0.188*[#   9]+0.188*[#  17]+0.188*[#  18]+0.041*[#   6]
          +0.041*[#  15]
    |psi|^2 = 0.835

 k =   0.2833333333  0.0000000000  0.0000000000
==== e(   1) =   -24.21779 eV ==== 
     psi = 0.230*[#   4]+0.230*[#   5]+0.230*[#  13]+0.230*[#  14]+0.039*[#   1]
          +0.039*[#  10]
    |psi|^2 = 1.000
==== e(   2) =   -24.15712 eV ==== 
     psi = 0.226*[#   4]+0.226*[#   5]+0.226*[#  13]+0.226*[#  14]+0.045*[#   1]
          +0.045*[#  10]
    |psi|^2 = 1.000
==== e(   3) =   -24.10743 eV ==== 
     psi = 0.378*[#   1]+0.378*[#  10]+0.060*[#   4]+0.060*[#   5]+0.060*[#  13]
          +0.060*[#  14]+0.001*[#   6]+0.001*[#  15]
    |psi|^2 = 1.000
==== e(   4) =   -24.00678 eV ==== 
     psi = 0.250*[#   2]+0.250*[#   3]+0.250*[#  11]+0.250*[#  12]
    |psi|^2 = 1.000
==== e(   5) =   -23.97183 eV ==== 
     psi = 0.250*[#   2]+0.250*[#   3]+0.250*[#  11]+0.250*[#  12]
    |psi|^2 = 1.000
==== e(   6) =   -23.79052 eV ==== 
     psi = 0.250*[#   2]+0.250*[#   3]+0.250*[#  11]+0.250*[#  12]
    |psi|^2 = 1.000
==== e(   7) =   -23.75299 eV ==== 
     psi = 0.250*[#   2]+0.250*[#   3]+0.250*[#  11]+0.250*[#  12]
    |psi|^2 = 1.000
==== e(   8) =   -23.75291 eV ==== 
     psi = 0.208*[#   4]+0.208*[#   5]+0.208*[#  13]+0.208*[#  14]+0.081*[#   1]
          +0.081*[#  10]
    |psi|^2 = 1.000
==== e(   9) =   -23.74501 eV ==== 
     psi = 0.241*[#   1]+0.241*[#  10]+0.129*[#   4]+0.129*[#   5]+0.129*[#  13]
          +0.129*[#  14]
    |psi|^2 = 1.000
==== e(  10) =   -23.67716 eV ==== 
     psi = 0.214*[#   1]+0.214*[#  10]+0.143*[#   4]+0.143*[#   5]+0.143*[#  13]
          +0.143*[#  14]
    |psi|^2 = 1.000
==== e(  11) =   -11.69882 eV ==== 
     psi = 0.438*[#   6]+0.438*[#  15]+0.029*[#   8]+0.029*[#   9]+0.029*[#  17]
          +0.029*[#  18]+0.001*[#   1]+0.001*[#  10]
    |psi|^2 = 0.997
==== e(  12) =    -6.83985 eV ==== 
     psi = 0.277*[#   6]+0.277*[#  15]+0.110*[#   8]+0.110*[#   9]+0.110*[#  17]
          +0.110*[#  18]
    |psi|^2 = 0.998
==== e(  13) =    -4.32818 eV ==== 
     psi = 0.246*[#   8]+0.246*[#   9]+0.246*[#  17]+0.246*[#  18]+0.005*[#   6]
          +0.005*[#  15]
    |psi|^2 = 0.997
==== e(  14) =    -3.77219 eV ==== 
     psi = 0.497*[#   7]+0.497*[#  16]
    |psi|^2 = 0.994
==== e(  15) =    -0.88466 eV ==== 
     psi = 0.196*[#   6]+0.196*[#  15]+0.145*[#   8]+0.145*[#   9]+0.145*[#  17]
          +0.145*[#  18]
    |psi|^2 = 0.973
==== e(  16) =     0.67996 eV ==== 
     psi = 0.468*[#   7]+0.468*[#  16]
    |psi|^2 = 0.936

 k =   0.3000000000  0.0000000000  0.0000000000
==== e(   1) =   -24.22704 eV ==== 
     psi = 0.232*[#   4]+0.232*[#   5]+0.232*[#  13]+0.232*[#  14]+0.035*[#   1]
          +0.035*[#  10]
    |psi|^2 = 1.000
==== e(   2) =   -24.16038 eV ==== 
     psi = 0.224*[#   4]+0.224*[#   5]+0.224*[#  13]+0.224*[#  14]+0.050*[#   1]
          +0.050*[#  10]
    |psi|^2 = 1.000
==== e(   3) =   -24.10744 eV ==== 
     psi = 0.376*[#   1]+0.376*[#  10]+0.061*[#   4]+0.061*[#   5]+0.061*[#  13]
          +0.061*[#  14]+0.001*[#   6]+0.001*[#  15]
    |psi|^2 = 1.000
==== e(   4) =   -24.00798 eV ==== 
     psi = 0.250*[#   2]+0.250*[#   3]+0.250*[#  11]+0.250*[#  12]
    |psi|^2 = 1.000
==== e(   5) =   -23.96908 eV ==== 
     psi = 0.250*[#   2]+0.250*[#   3]+0.250*[#  11]+0.250*[#  12]
    |psi|^2 = 1.000
==== e(   6) =   -23.79352 eV ==== 
     psi = 0.250*[#   2]+0.250*[#   3]+0.250*[#  11]+0.250*[#  12]
    |psi|^2 = 1.000
==== e(   7) =   -23.75183 eV ==== 
     psi = 0.250*[#   2]+0.250*[#   3]+0.250*[#  11]+0.250*[#  12]
    |psi|^2 = 1.000
==== e(   8) =   -23.74790 eV ==== 
     psi = 0.205*[#   4]+0.205*[#   5]+0.205*[#  13]+0.205*[#  14]+0.088*[#   1]
          +0.088*[#  10]
    |psi|^2 = 1.000
==== e(   9) =   -23.74245 eV ==== 
     psi = 0.274*[#   1]+0.274*[#  10]+0.112*[#   4]+0.112*[#   5]+0.112*[#  13]
          +0.112*[#  14]
    |psi|^2 = 1.000
==== e(  10) =   -23.67021 eV ==== 
     psi = 0.176*[#   1]+0.176*[#  10]+0.162*[#   4]+0.162*[#   5]+0.162*[#  13]
          +0.162*[#  14]
    |psi|^2 = 1.000
==== e(  11) =   -11.63862 eV ==== 
     psi = 0.433*[#   6]+0.433*[#  15]+0.032*[#   8]+0.032*[#   9]+0.032*[#  17]
          +0.032*[#  18]+0.001*[#   1]+0.001*[#  10]
    |psi|^2 = 0.997
==== e(  12) =    -7.01159 eV ==== 
     psi = 0.279*[#   6]+0.279*[#  15]+0.109*[#   8]+0.109*[#   9]+0.109*[#  17]
          +0.109*[#  18]
    |psi|^2 = 0.998
==== e(  13) =    -4.42171 eV ==== 
     psi = 0.246*[#   8]+0.246*[#   9]+0.246*[#  17]+0.246*[#  18]+0.005*[#   6]
          +0.005*[#  15]
    |psi|^2 = 0.997
==== e(  14) =    -3.71127 eV ==== 
     psi = 0.497*[#   7]+0.497*[#  16]
    |psi|^2 = 0.994
==== e(  15) =    -0.77715 eV ==== 
     psi = 0.193*[#   6]+0.193*[#  15]+0.146*[#   8]+0.146*[#   9]+0.146*[#  17]
          +0.146*[#  18]
    |psi|^2 = 0.971
==== e(  16) =     0.54380 eV ==== 
     psi = 0.468*[#   7]+0.468*[#  16]
    |psi|^2 = 0.937

 k =   0.3166666667  0.0000000000  0.0000000000
==== e(   1) =   -24.23611 eV ==== 
     psi = 0.234*[#   4]+0.234*[#   5]+0.234*[#  13]+0.234*[#  14]+0.031*[#   1]
          +0.031*[#  10]
    |psi|^2 = 1.000
==== e(   2) =   -24.16329 eV ==== 
     psi = 0.222*[#   4]+0.222*[#   5]+0.222*[#  13]+0.222*[#  14]+0.054*[#   1]
          +0.054*[#  10]
    |psi|^2 = 1.000
==== e(   3) =   -24.10751 eV ==== 
     psi = 0.372*[#   1]+0.372*[#  10]+0.063*[#   4]+0.063*[#   5]+0.063*[#  13]
          +0.063*[#  14]+0.001*[#   6]+0.001*[#  15]
    |psi|^2 = 1.000
==== e(   4) =   -24.00919 eV ==== 
     psi = 0.250*[#   2]+0.250*[#   3]+0.250*[#  11]+0.250*[#  12]
    |psi|^2 = 1.000
==== e(   5) =   -23.96619 eV ==== 
     psi = 0.250*[#   2]+0.250*[#   3]+0.250*[#  11]+0.250*[#  12]
    |psi|^2 = 1.000
==== e(   6) =   -23.79665 eV ==== 
     psi = 0.250*[#   2]+0.250*[#   3]+0.250*[#  11]+0.250*[#  12]
    |psi|^2 = 1.000
==== e(   7) =   -23.75065 eV ==== 
     psi = 0.250*[#   2]+0.250*[#   3]+0.250*[#  11]+0.250*[#  12]
    |psi|^2 = 1.000
==== e(   8) =   -23.74322 eV ==== 
     psi = 0.201*[#   4]+0.201*[#   5]+0.201*[#  13]+0.201*[#  14]+0.095*[#   1]
          +0.095*[#  10]
    |psi|^2 = 1.000
==== e(   9) =   -23.74054 eV ==== 
     psi = 0.301*[#   1]+0.301*[#  10]+0.099*[#   4]+0.099*[#   5]+0.099*[#  13]
          +0.099*[#  14]
    |psi|^2 = 1.000
==== e(  10) =   -23.66274 eV ==== 
     psi = 0.178*[#   4]+0.178*[#   5]+0.178*[#  13]+0.178*[#  14]+0.144*[#   1]
          +0.144*[#  10]
    |psi|^2 = 1.000
==== e(  11) =   -11.57530 eV ==== 
     psi = 0.428*[#   6]+0.428*[#  15]+0.035*[#   8]+0.035*[#   9]+0.035*[#  17]
          +0.035*[#  18]+0.001*[#   1]+0.001*[#  10]
    |psi|^2 = 0.997
==== e(  12) =    -7.17980 eV ==== 
     psi = 0.281*[#   6]+0.281*[#  15]+0.108*[#   8]+0.108*[#   9]+0.108*[#  17]
          +0.108*[#  18]
    |psi|^2 = 0.998
==== e(  13) =    -4.51577 eV ==== 
     psi = 0.246*[#   8]+0.246*[#   9]+0.246*[#  17]+0.246*[#  18]+0.006*[#   6]
          +0.006*[#  15]
    |psi|^2 = 0.997
==== e(  14) =    -3.64736 eV ==== 
     psi = 0.496*[#   7]+0.496*[#  16]
    |psi|^2 = 0.993
==== e(  15) =    -0.67107 eV ==== 
     psi = 0.190*[#   6]+0.190*[#  15]+0.147*[#   8]+0.147*[#   9]+0.147*[#  17]
          +0.147*[#  18]
    |psi|^2 = 0.969
==== e(  16) =     0.40823 eV ==== 
     psi = 0.469*[#   7]+0.469*[#  16]
    |psi|^2 = 0.939

 k =   0.3333333333  0.0000000000  0.0000000000
==== e(   1) =   -24.24496 eV ==== 
     psi = 0.235*[#   4]+0.235*[#   5]+0.235*[#  13]+0.235*[#  14]+0.028*[#   1]
          +0.028*[#  10]
    |psi|^2 = 1.000
==== e(   2) =   -24.16584 eV ==== 
     psi = 0.219*[#   4]+0.219*[#   5]+0.219*[#  13]+0.219*[#  14]+0.059*[#   1]
          +0.059*[#  10]
    |psi|^2 = 1.000
==== e(   3) =   -24.10765 eV ==== 
     psi = 0.368*[#   1]+0.368*[#  10]+0.065*[#   4]+0.065*[#   5]+0.065*[#  13]
          +0.065*[#  14]+0.001*[#   6]+0.001*[#  15]
    |psi|^2 = 1.000
==== e(   4) =   -24.01042 eV ==== 
     psi = 0.250*[#   2]+0.250*[#   3]+0.250*[#  11]+0.250*[#  12]
    |psi|^2 = 1.000
==== e(   5) =   -23.96316 eV ==== 
     psi = 0.250*[#   2]+0.250*[#   3]+0.250*[#  11]+0.250*[#  12]
    |psi|^2 = 1.000
==== e(   6) =   -23.79992 eV ==== 
     psi = 0.250*[#   2]+0.250*[#   3]+0.250*[#  11]+0.250*[#  12]
    |psi|^2 = 1.000
==== e(   7) =   -23.74946 eV ==== 
     psi = 0.250*[#   2]+0.250*[#   3]+0.250*[#  11]+0.250*[#  12]
    |psi|^2 = 1.000
==== e(   8) =   -23.73916 eV ==== 
     psi = 0.323*[#   1]+0.323*[#  10]+0.088*[#   4]+0.088*[#   5]+0.088*[#  13]
          +0.088*[#  14]
    |psi|^2 = 1.000
==== e(   9) =   -23.73888 eV ==== 
     psi = 0.198*[#   4]+0.198*[#   5]+0.198*[#  13]+0.198*[#  14]+0.103*[#   1]
          +0.103*[#  10]
    |psi|^2 = 1.000
==== e(  10) =   -23.65494 eV ==== 
     psi = 0.191*[#   4]+0.191*[#   5]+0.191*[#  13]+0.191*[#  14]+0.118*[#   1]
          +0.118*[#  10]
    |psi|^2 = 1.000
==== e(  11) =   -11.50895 eV ==== 
     psi = 0.423*[#   6]+0.423*[#  15]+0.037*[#   8]+0.037*[#   9]+0.037*[#  17]
          +0.037*[#  18]+0.001*[#   1]+0.001*[#  10]
    |psi|^2 = 0.997
==== e(  12) =    -7.34438 eV ==== 
     psi = 0.283*[#   6]+0.283*[#  15]+0.107*[#   8]+0.107*[#   9]+0.107*[#  17]
          +0.107*[#  18]
    |psi|^2 = 0.998
==== e(  13) =    -4.60984 eV ==== 
     psi = 0.245*[#   8]+0.245*[#   9]+0.245*[#  17]+0.245*[#  18]+0.006*[#   6]
          +0.006*[#  15]
    |psi|^2 = 0.997
==== e(  14) =    -3.58057 eV ==== 
     psi = 0.496*[#   7]+0.496*[#  16]
    |psi|^2 = 0.993
==== e(  15) =    -0.56580 eV ==== 
     psi = 0.188*[#   6]+0.188*[#  15]+0.147*[#   8]+0.147*[#   9]+0.147*[#  17]
          +0.147*[#  18]
    |psi|^2 = 0.967
==== e(  16) =     0.27359 eV ==== 
     psi = 0.470*[#   7]+0.470*[#  16]
    |psi|^2 = 0.941

 k =   0.3500000000  0.0000000000  0.0000000000
==== e(   1) =   -24.25357 eV ==== 
     psi = 0.237*[#   4]+0.237*[#   5]+0.237*[#  13]+0.237*[#  14]+0.025*[#   1]
          +0.025*[#  10]
    |psi|^2 = 1.000
==== e(   2) =   -24.16800 eV ==== 
     psi = 0.217*[#   4]+0.217*[#   5]+0.217*[#  13]+0.217*[#  14]+0.064*[#   1]
          +0.064*[#  10]
    |psi|^2 = 1.000
==== e(   3) =   -24.10786 eV ==== 
     psi = 0.364*[#   1]+0.364*[#  10]+0.067*[#   4]+0.067*[#   5]+0.067*[#  13]
          +0.067*[#  14]+0.001*[#   6]+0.001*[#  15]
    |psi|^2 = 1.000
==== e(   4) =   -24.01166 eV ==== 
     psi = 0.250*[#   2]+0.250*[#   3]+0.250*[#  11]+0.250*[#  12]
    |psi|^2 = 1.000
==== e(   5) =   -23.96000 eV ==== 
     psi = 0.250*[#   2]+0.250*[#   3]+0.250*[#  11]+0.250*[#  12]
    |psi|^2 = 1.000
==== e(   6) =   -23.80331 eV ==== 
     psi = 0.250*[#   2]+0.250*[#   3]+0.250*[#  11]+0.250*[#  12]
    |psi|^2 = 1.000
==== e(   7) =   -23.74827 eV ==== 
     psi = 0.250*[#   2]+0.250*[#   3]+0.250*[#  11]+0.250*[#  12]
    |psi|^2 = 1.000
==== e(   8) =   -23.73816 eV ==== 
     psi = 0.339*[#   1]+0.339*[#  10]+0.080*[#   4]+0.080*[#   5]+0.080*[#  13]
          +0.080*[#  14]
    |psi|^2 = 1.000
==== e(   9) =   -23.73491 eV ==== 
     psi = 0.194*[#   4]+0.194*[#   5]+0.194*[#  13]+0.194*[#  14]+0.110*[#   1]
          +0.110*[#  10]
    |psi|^2 = 1.000
==== e(  10) =   -23.64698 eV ==== 
     psi = 0.201*[#   4]+0.201*[#   5]+0.201*[#  13]+0.201*[#  14]+0.097*[#   1]
          +0.097*[#  10]
    |psi|^2 = 1.000
==== e(  11) =   -11.43963 eV ==== 
     psi = 0.418*[#   6]+0.418*[#  15]+0.040*[#   8]+0.040*[#   9]+0.040*[#  17]
          +0.040*[#  18]+0.001*[#   1]+0.001*[#  10]
    |psi|^2 = 0.997
==== e(  12) =    -7.50528 eV ==== 
     psi = 0.285*[#   6]+0.285*[#  15]+0.106*[#   8]+0.106*[#   9]+0.106*[#  17]
          +0.106*[#  18]
    |psi|^2 = 0.998
==== e(  13) =    -4.70344 eV ==== 
     psi = 0.245*[#   8]+0.245*[#   9]+0.245*[#  17]+0.245*[#  18]+0.007*[#   6]
          +0.007*[#  15]
    |psi|^2 = 0.997
==== e(  14) =    -3.51099 eV ==== 
     psi = 0.496*[#   7]+0.496*[#  16]
    |psi|^2 = 0.992
==== e(  15) =    -0.46074 eV ==== 
     psi = 0.185*[#   6]+0.185*[#  15]+0.148*[#   8]+0.148*[#   9]+0.148*[#  17]
          +0.148*[#  18]
    |psi|^2 = 0.965
==== e(  16) =     0.14021 eV ==== 
     psi = 0.471*[#   7]+0.471*[#  16]
    |psi|^2 = 0.943

 k =   0.3666666667  0.0000000000  0.0000000000
==== e(   1) =   -24.26190 eV ==== 
     psi = 0.238*[#   4]+0.238*[#   5]+0.238*[#  13]+0.238*[#  14]+0.022*[#   1]
          +0.022*[#  10]
    |psi|^2 = 1.000
==== e(   2) =   -24.16978 eV ==== 
     psi = 0.214*[#   4]+0.214*[#   5]+0.214*[#  13]+0.214*[#  14]+0.069*[#   1]
          +0.069*[#  10]
    |psi|^2 = 1.000
==== e(   3) =   -24.10816 eV ==== 
     psi = 0.359*[#   1]+0.359*[#  10]+0.070*[#   4]+0.070*[#   5]+0.070*[#  13]
          +0.070*[#  14]+0.001*[#   6]+0.001*[#  15]
    |psi|^2 = 1.000
==== e(   4) =   -24.01289 eV ==== 
     psi = 0.250*[#   2]+0.250*[#   3]+0.250*[#  11]+0.250*[#  12]
    |psi|^2 = 1.000
==== e(   5) =   -23.95670 eV ==== 
     psi = 0.250*[#   2]+0.250*[#   3]+0.250*[#  11]+0.250*[#  12]
    |psi|^2 = 1.000
==== e(   6) =   -23.80682 eV ==== 
     psi = 0.250*[#   2]+0.250*[#   3]+0.250*[#  11]+0.250*[#  12]
    |psi|^2 = 1.000
==== e(   7) =   -23.74708 eV ==== 
     psi = 0.250*[#   2]+0.250*[#   3]+0.250*[#  11]+0.250*[#  12]
    |psi|^2 = 1.000
==== e(   8) =   -23.73745 eV ==== 
     psi = 0.351*[#   1]+0.351*[#  10]+0.074*[#   4]+0.074*[#   5]+0.074*[#  13]
          +0.074*[#  14]
    |psi|^2 = 1.000
==== e(   9) =   -23.73131 eV ==== 
     psi = 0.190*[#   4]+0.190*[#   5]+0.190*[#  13]+0.190*[#  14]+0.118*[#   1]
          +0.118*[#  10]
    |psi|^2 = 1.000
==== e(  10) =   -23.63898 eV ==== 
     psi = 0.210*[#   4]+0.210*[#   5]+0.210*[#  13]+0.210*[#  14]+0.080*[#   1]
          +0.080*[#  10]
    |psi|^2 = 1.000
==== e(  11) =   -11.36747 eV ==== 
     psi = 0.413*[#   6]+0.413*[#  15]+0.042*[#   8]+0.042*[#   9]+0.042*[#  17]
          +0.042*[#  18]+0.001*[#   1]+0.001*[#  10]
    |psi|^2 = 0.997
==== e(  12) =    -7.66241 eV ==== 
     psi = 0.287*[#   6]+0.287*[#  15]+0.105*[#   8]+0.105*[#   9]+0.105*[#  17]
          +0.105*[#  18]
    |psi|^2 = 0.998
==== e(  13) =    -4.79610 eV ==== 
     psi = 0.245*[#   8]+0.245*[#   9]+0.245*[#  17]+0.245*[#  18]+0.007*[#   6]
          +0.007*[#  15]
    |psi|^2 = 0.997
==== e(  14) =    -3.43875 eV ==== 
     psi = 0.496*[#   7]+0.496*[#  16]
    |psi|^2 = 0.992
==== e(  15) =    -0.35542 eV ==== 
     psi = 0.183*[#   6]+0.183*[#  15]+0.149*[#   8]+0.149*[#   9]+0.149*[#  17]
          +0.149*[#  18]
    |psi|^2 = 0.962
==== e(  16) =     0.00835 eV ==== 
     psi = 0.472*[#   7]+0.472*[#  16]
    |psi|^2 = 0.945

 k =   0.3833333333  0.0000000000  0.0000000000
==== e(   1) =   -24.26991 eV ==== 
     psi = 0.240*[#   4]+0.240*[#   5]+0.240*[#  13]+0.240*[#  14]+0.020*[#   1]
          +0.020*[#  10]
    |psi|^2 = 1.000
==== e(   2) =   -24.17116 eV ==== 
     psi = 0.212*[#   4]+0.212*[#   5]+0.212*[#  13]+0.212*[#  14]+0.075*[#   1]
          +0.075*[#  10]
    |psi|^2 = 1.000
==== e(   3) =   -24.10855 eV ==== 
     psi = 0.354*[#   1]+0.354*[#  10]+0.072*[#   4]+0.072*[#   5]+0.072*[#  13]
          +0.072*[#  14]+0.001*[#   6]+0.001*[#  15]
    |psi|^2 = 1.000
==== e(   4) =   -24.01412 eV ==== 
     psi = 0.250*[#   2]+0.250*[#   3]+0.250*[#  11]+0.250*[#  12]
    |psi|^2 = 1.000
==== e(   5) =   -23.95329 eV ==== 
     psi = 0.250*[#   2]+0.250*[#   3]+0.250*[#  11]+0.250*[#  12]
    |psi|^2 = 1.000
==== e(   6) =   -23.81045 eV ==== 
     psi = 0.250*[#   2]+0.250*[#   3]+0.250*[#  11]+0.250*[#  12]
    |psi|^2 = 1.000
==== e(   7) =   -23.74590 eV ==== 
     psi = 0.250*[#   2]+0.250*[#   3]+0.250*[#  11]+0.250*[#  12]
    |psi|^2 = 1.000
==== e(   8) =   -23.73694 eV ==== 
     psi = 0.359*[#   1]+0.359*[#  10]+0.070*[#   4]+0.070*[#   5]+0.070*[#  13]
          +0.070*[#  14]
    |psi|^2 = 1.000
==== e(   9) =   -23.72810 eV ==== 
     psi = 0.187*[#   4]+0.187*[#   5]+0.187*[#  13]+0.187*[#  14]+0.126*[#   1]
          +0.126*[#  10]
    |psi|^2 = 1.000
==== e(  10) =   -23.63105 eV ==== 
     psi = 0.217*[#   4]+0.217*[#   5]+0.217*[#  13]+0.217*[#  14]+0.066*[#   1]
          +0.066*[#  10]
    |psi|^2 = 1.000
==== e(  11) =   -11.29255 eV ==== 
     psi = 0.408*[#   6]+0.408*[#  15]+0.044*[#   8]+0.044*[#   9]+0.044*[#  17]
          +0.044*[#  18]
    |psi|^2 = 0.997
==== e(  12) =    -7.81573 eV ==== 
     psi = 0.289*[#   6]+0.289*[#  15]+0.104*[#   8]+0.104*[#   9]+0.104*[#  17]
          +0.104*[#  18]
    |psi|^2 = 0.998
==== e(  13) =    -4.88739 eV ==== 
     psi = 0.245*[#   8]+0.245*[#   9]+0.245*[#  17]+0.245*[#  18]+0.007*[#   6]
          +0.007*[#  15]
    |psi|^2 = 0.997
==== e(  14) =    -3.36397 eV ==== 
     psi = 0.495*[#   7]+0.495*[#  16]
    |psi|^2 = 0.991
==== e(  15) =    -0.24940 eV ==== 
     psi = 0.181*[#   6]+0.181*[#  15]+0.149*[#   8]+0.149*[#   9]+0.149*[#  17]
          +0.149*[#  18]
    |psi|^2 = 0.960
==== e(  16) =    -0.12172 eV ==== 
     psi = 0.473*[#   7]+0.473*[#  16]
    |psi|^2 = 0.947

 k =   0.4000000000  0.0000000000  0.0000000000
==== e(   1) =   -24.27758 eV ==== 
     psi = 0.241*[#   4]+0.241*[#   5]+0.241*[#  13]+0.241*[#  14]+0.017*[#   1]
          +0.017*[#  10]
    |psi|^2 = 1.000
==== e(   2) =   -24.17213 eV ==== 
     psi = 0.209*[#   4]+0.209*[#   5]+0.209*[#  13]+0.209*[#  14]+0.080*[#   1]
          +0.080*[#  10]
    |psi|^2 = 1.000
==== e(   3) =   -24.10905 eV ==== 
     psi = 0.348*[#   1]+0.348*[#  10]+0.075*[#   4]+0.075*[#   5]+0.075*[#  13]
          +0.075*[#  14]+0.001*[#   6]+0.001*[#  15]
    |psi|^2 = 1.000
==== e(   4) =   -24.01533 eV ==== 
     psi = 0.250*[#   2]+0.250*[#   3]+0.250*[#  11]+0.250*[#  12]
    |psi|^2 = 1.000
==== e(   5) =   -23.94975 eV ==== 
     psi = 0.250*[#   2]+0.250*[#   3]+0.250*[#  11]+0.250*[#  12]
    |psi|^2 = 1.000
==== e(   6) =   -23.81418 eV ==== 
     psi = 0.250*[#   2]+0.250*[#   3]+0.250*[#  11]+0.250*[#  12]
    |psi|^2 = 1.000
==== e(   7) =   -23.74475 eV ==== 
     psi = 0.250*[#   2]+0.250*[#   3]+0.250*[#  11]+0.250*[#  12]
    |psi|^2 = 1.000
==== e(   8) =   -23.73659 eV ==== 
     psi = 0.365*[#   1]+0.365*[#  10]+0.067*[#   4]+0.067*[#   5]+0.067*[#  13]
          +0.067*[#  14]
    |psi|^2 = 1.000
==== e(   9) =   -23.72528 eV ==== 
     psi = 0.183*[#   4]+0.183*[#   5]+0.183*[#  13]+0.183*[#  14]+0.134*[#   1]
          +0.134*[#  10]
    |psi|^2 = 1.000
==== e(  10) =   -23.62329 eV ==== 
     psi = 0.222*[#   4]+0.222*[#   5]+0.222*[#  13]+0.222*[#  14]+0.054*[#   1]
          +0.054*[#  10]
    |psi|^2 = 1.000
==== e(  11) =   -11.21501 eV ==== 
     psi = 0.403*[#   6]+0.403*[#  15]+0.047*[#   8]+0.047*[#   9]+0.047*[#  17]
          +0.047*[#  18]
    |psi|^2 = 0.997
==== e(  12) =    -7.96517 eV ==== 
     psi = 0.292*[#   6]+0.292*[#  15]+0.103*[#   8]+0.103*[#   9]+0.103*[#  17]
          +0.103*[#  18]
    |psi|^2 = 0.998
==== e(  13) =    -4.97687 eV ==== 
     psi = 0.245*[#   8]+0.245*[#   9]+0.245*[#  17]+0.245*[#  18]+0.007*[#   6]
          +0.007*[#  15]
    |psi|^2 = 0.997
==== e(  14) =    -3.28680 eV ==== 
     psi = 0.495*[#   7]+0.495*[#  16]
    |psi|^2 = 0.991
==== e(  15) =    -0.24981 eV ==== 
     psi = 0.474*[#   7]+0.474*[#  16]
    |psi|^2 = 0.950
==== e(  16) =    -0.14231 eV ==== 
     psi = 0.179*[#   6]+0.179*[#  15]+0.150*[#   8]+0.150*[#   9]+0.150*[#  17]
          +0.150*[#  18]
    |psi|^2 = 0.957

 k =   0.4166666667  0.0000000000  0.0000000000
==== e(   1) =   -24.28489 eV ==== 
     psi = 0.242*[#   4]+0.242*[#   5]+0.242*[#  13]+0.242*[#  14]+0.015*[#   1]
          +0.015*[#  10]
    |psi|^2 = 1.000
==== e(   2) =   -24.17271 eV ==== 
     psi = 0.206*[#   4]+0.206*[#   5]+0.206*[#  13]+0.206*[#  14]+0.086*[#   1]
          +0.086*[#  10]
    |psi|^2 = 1.000
==== e(   3) =   -24.10967 eV ==== 
     psi = 0.342*[#   1]+0.342*[#  10]+0.078*[#   4]+0.078*[#   5]+0.078*[#  13]
          +0.078*[#  14]+0.001*[#   6]+0.001*[#  15]
    |psi|^2 = 1.000
==== e(   4) =   -24.01651 eV ==== 
     psi = 0.250*[#   2]+0.250*[#   3]+0.250*[#  11]+0.250*[#  12]
    |psi|^2 = 1.000
==== e(   5) =   -23.94611 eV ==== 
     psi = 0.250*[#   2]+0.250*[#   3]+0.250*[#  11]+0.250*[#  12]
    |psi|^2 = 1.000
==== e(   6) =   -23.81802 eV ==== 
     psi = 0.250*[#   2]+0.250*[#   3]+0.250*[#  11]+0.250*[#  12]
    |psi|^2 = 1.000
==== e(   7) =   -23.74362 eV ==== 
     psi = 0.250*[#   2]+0.250*[#   3]+0.250*[#  11]+0.250*[#  12]
    |psi|^2 = 1.000
==== e(   8) =   -23.73632 eV ==== 
     psi = 0.368*[#   1]+0.368*[#  10]+0.065*[#   4]+0.065*[#   5]+0.065*[#  13]
          +0.065*[#  14]
    |psi|^2 = 1.000
==== e(   9) =   -23.72285 eV ==== 
     psi = 0.178*[#   4]+0.178*[#   5]+0.178*[#  13]+0.178*[#  14]+0.142*[#   1]
          +0.142*[#  10]
    |psi|^2 = 1.000
==== e(  10) =   -23.61576 eV ==== 
     psi = 0.227*[#   4]+0.227*[#   5]+0.227*[#  13]+0.227*[#  14]+0.045*[#   1]
          +0.045*[#  10]
    |psi|^2 = 1.000
==== e(  11) =   -11.13499 eV ==== 
     psi = 0.399*[#   6]+0.399*[#  15]+0.049*[#   8]+0.049*[#   9]+0.049*[#  17]
          +0.049*[#  18]
    |psi|^2 = 0.997
==== e(  12) =    -8.11070 eV ==== 
     psi = 0.294*[#   6]+0.294*[#  15]+0.101*[#   8]+0.101*[#   9]+0.101*[#  17]
          +0.101*[#  18]
    |psi|^2 = 0.998
==== e(  13) =    -5.06414 eV ==== 
     psi = 0.245*[#   8]+0.245*[#   9]+0.245*[#  17]+0.245*[#  18]+0.007*[#   6]
          +0.007*[#  15]
    |psi|^2 = 0.997
==== e(  14) =    -3.20740 eV ==== 
     psi = 0.495*[#   7]+0.495*[#  16]
    |psi|^2 = 0.990
==== e(  15) =    -0.37572 eV ==== 
     psi = 0.476*[#   7]+0.476*[#  16]
    |psi|^2 = 0.952
==== e(  16) =    -0.03381 eV ==== 
     psi = 0.177*[#   6]+0.177*[#  15]+0.150*[#   8]+0.150*[#   9]+0.150*[#  17]
          +0.150*[#  18]
    |psi|^2 = 0.955

 k =   0.4333333333  0.0000000000  0.0000000000
==== e(   1) =   -24.29181 eV ==== 
     psi = 0.243*[#   4]+0.243*[#   5]+0.243*[#  13]+0.243*[#  14]+0.013*[#   1]
          +0.013*[#  10]
    |psi|^2 = 1.000
==== e(   2) =   -24.17288 eV ==== 
     psi = 0.203*[#   4]+0.203*[#   5]+0.203*[#  13]+0.203*[#  14]+0.092*[#   1]
          +0.092*[#  10]
    |psi|^2 = 1.000
==== e(   3) =   -24.11041 eV ==== 
     psi = 0.335*[#   1]+0.335*[#  10]+0.081*[#   4]+0.081*[#   5]+0.081*[#  13]
          +0.081*[#  14]+0.001*[#   6]+0.001*[#  15]
    |psi|^2 = 1.000
==== e(   4) =   -24.01766 eV ==== 
     psi = 0.250*[#   2]+0.250*[#   3]+0.250*[#  11]+0.250*[#  12]
    |psi|^2 = 1.000
==== e(   5) =   -23.94235 eV ==== 
     psi = 0.250*[#   2]+0.250*[#   3]+0.250*[#  11]+0.250*[#  12]
    |psi|^2 = 1.000
==== e(   6) =   -23.82195 eV ==== 
     psi = 0.250*[#   2]+0.250*[#   3]+0.250*[#  11]+0.250*[#  12]
    |psi|^2 = 1.000
==== e(   7) =   -23.74252 eV ==== 
     psi = 0.250*[#   2]+0.250*[#   3]+0.250*[#  11]+0.250*[#  12]
    |psi|^2 = 1.000
==== e(   8) =   -23.73611 eV ==== 
     psi = 0.370*[#   1]+0.370*[#  10]+0.065*[#   4]+0.065*[#   5]+0.065*[#  13]
          +0.065*[#  14]
    |psi|^2 = 1.000
==== e(   9) =   -23.72081 eV ==== 
     psi = 0.174*[#   4]+0.174*[#   5]+0.174*[#  13]+0.174*[#  14]+0.150*[#   1]
          +0.150*[#  10]
    |psi|^2 = 1.000
==== e(  10) =   -23.60853 eV ==== 
     psi = 0.231*[#   4]+0.231*[#   5]+0.231*[#  13]+0.231*[#  14]+0.037*[#   1]
          +0.037*[#  10]
    |psi|^2 = 1.000
==== e(  11) =   -11.05264 eV ==== 
     psi = 0.394*[#   6]+0.394*[#  15]+0.051*[#   8]+0.051*[#   9]+0.051*[#  17]
          +0.051*[#  18]
    |psi|^2 = 0.997
==== e(  12) =    -8.25227 eV ==== 
     psi = 0.297*[#   6]+0.297*[#  15]+0.100*[#   8]+0.100*[#   9]+0.100*[#  17]
          +0.100*[#  18]
    |psi|^2 = 0.998
==== e(  13) =    -5.14879 eV ==== 
     psi = 0.245*[#   8]+0.245*[#   9]+0.245*[#  17]+0.245*[#  18]+0.007*[#   6]
          +0.007*[#  15]
    |psi|^2 = 0.997
==== e(  14) =    -3.12594 eV ==== 
     psi = 0.494*[#   7]+0.494*[#  16]
    |psi|^2 = 0.990
==== e(  15) =    -0.49928 eV ==== 
     psi = 0.477*[#   7]+0.477*[#  16]
    |psi|^2 = 0.955
==== e(  16) =     0.07635 eV ==== 
     psi = 0.175*[#   6]+0.175*[#  15]+0.150*[#   8]+0.150*[#   9]+0.150*[#  17]
          +0.150*[#  18]
    |psi|^2 = 0.952

 k =   0.4500000000  0.0000000000  0.0000000000
==== e(   1) =   -24.29833 eV ==== 
     psi = 0.244*[#   4]+0.244*[#   5]+0.244*[#  13]+0.244*[#  14]+0.011*[#   1]
          +0.011*[#  10]
    |psi|^2 = 1.000
==== e(   2) =   -24.17267 eV ==== 
     psi = 0.200*[#   4]+0.200*[#   5]+0.200*[#  13]+0.200*[#  14]+0.099*[#   1]
          +0.099*[#  10]
    |psi|^2 = 1.000
==== e(   3) =   -24.11130 eV ==== 
     psi = 0.328*[#   1]+0.328*[#  10]+0.085*[#   4]+0.085*[#   5]+0.085*[#  13]
          +0.085*[#  14]+0.001*[#   6]+0.001*[#  15]
    |psi|^2 = 1.000
==== e(   4) =   -24.01877 eV ==== 
     psi = 0.250*[#   2]+0.250*[#   3]+0.250*[#  11]+0.250*[#  12]
    |psi|^2 = 1.000
==== e(   5) =   -23.93849 eV ==== 
     psi = 0.250*[#   2]+0.250*[#   3]+0.250*[#  11]+0.250*[#  12]
    |psi|^2 = 1.000
==== e(   6) =   -23.82596 eV ==== 
     psi = 0.250*[#   2]+0.250*[#   3]+0.250*[#  11]+0.250*[#  12]
    |psi|^2 = 1.000
==== e(   7) =   -23.74147 eV ==== 
     psi = 0.250*[#   2]+0.250*[#   3]+0.250*[#  11]+0.250*[#  12]
    |psi|^2 = 1.000
==== e(   8) =   -23.73593 eV ==== 
     psi = 0.370*[#   1]+0.370*[#  10]+0.065*[#   4]+0.065*[#   5]+0.065*[#  13]
          +0.065*[#  14]
    |psi|^2 = 1.000
==== e(   9) =   -23.71915 eV ==== 
     psi = 0.170*[#   4]+0.170*[#   5]+0.170*[#  13]+0.170*[#  14]+0.159*[#   1]
          +0.159*[#  10]
    |psi|^2 = 1.000
==== e(  10) =   -23.60165 eV ==== 
     psi = 0.234*[#   4]+0.234*[#   5]+0.234*[#  13]+0.234*[#  14]+0.031*[#   1]
          +0.031*[#  10]
    |psi|^2 = 1.000
==== e(  11) =   -10.96815 eV ==== 
     psi = 0.390*[#   6]+0.390*[#  15]+0.053*[#   8]+0.053*[#   9]+0.053*[#  17]
          +0.053*[#  18]
    |psi|^2 = 0.997
==== e(  12) =    -8.38984 eV ==== 
     psi = 0.300*[#   6]+0.300*[#  15]+0.099*[#   8]+0.099*[#   9]+0.099*[#  17]
          +0.099*[#  18]
    |psi|^2 = 0.997
==== e(  13) =    -5.23042 eV ==== 
     psi = 0.245*[#   8]+0.245*[#   9]+0.245*[#  17]+0.245*[#  18]+0.007*[#   6]
          +0.007*[#  15]
    |psi|^2 = 0.997
==== e(  14) =    -3.04261 eV ==== 
     psi = 0.494*[#   7]+0.494*[#  16]
    |psi|^2 = 0.989
==== e(  15) =    -0.62034 eV ==== 
     psi = 0.478*[#   7]+0.478*[#  16]
    |psi|^2 = 0.957
==== e(  16) =     0.18841 eV ==== 
     psi = 0.173*[#   6]+0.173*[#  15]+0.150*[#   8]+0.150*[#   9]+0.150*[#  17]
          +0.150*[#  18]
    |psi|^2 = 0.949

 k =   0.4666666667  0.0000000000  0.0000000000
==== e(   1) =   -24.30442 eV ==== 
     psi = 0.245*[#   4]+0.245*[#   5]+0.245*[#  13]+0.245*[#  14]+0.010*[#   1]
          +0.010*[#  10]
    |psi|^2 = 1.000
==== e(   2) =   -24.17206 eV ==== 
     psi = 0.197*[#   4]+0.197*[#   5]+0.197*[#  13]+0.197*[#  14]+0.105*[#   1]
          +0.105*[#  10]
    |psi|^2 = 1.000
==== e(   3) =   -24.11235 eV ==== 
     psi = 0.321*[#   1]+0.321*[#  10]+0.088*[#   4]+0.088*[#   5]+0.088*[#  13]
          +0.088*[#  14]+0.001*[#   6]+0.001*[#  15]
    |psi|^2 = 1.000
==== e(   4) =   -24.01983 eV ==== 
     psi = 0.250*[#   2]+0.250*[#   3]+0.250*[#  11]+0.250*[#  12]
    |psi|^2 = 1.000
==== e(   5) =   -23.93454 eV ==== 
     psi = 0.250*[#   2]+0.250*[#   3]+0.250*[#  11]+0.250*[#  12]
    |psi|^2 = 1.000
==== e(   6) =   -23.83006 eV ==== 
     psi = 0.250*[#   2]+0.250*[#   3]+0.250*[#  11]+0.250*[#  12]
    |psi|^2 = 1.000
==== e(   7) =   -23.74046 eV ==== 
     psi = 0.250*[#   2]+0.250*[#   3]+0.250*[#  11]+0.250*[#  12]
    |psi|^2 = 1.000
==== e(   8) =   -23.73574 eV ==== 
     psi = 0.369*[#   1]+0.369*[#  10]+0.065*[#   4]+0.065*[#   5]+0.065*[#  13]
          +0.065*[#  14]
    |psi|^2 = 1.000
==== e(   9) =   -23.71787 eV ==== 
     psi = 0.168*[#   1]+0.168*[#  10]+0.165*[#   4]+0.165*[#   5]+0.165*[#  13]
          +0.165*[#  14]
    |psi|^2 = 1.000
==== e(  10) =   -23.59516 eV ==== 
     psi = 0.237*[#   4]+0.237*[#   5]+0.237*[#  13]+0.237*[#  14]+0.025*[#   1]
          +0.025*[#  10]
    |psi|^2 = 1.000
==== e(  11) =   -10.88171 eV ==== 
     psi = 0.386*[#   6]+0.386*[#  15]+0.055*[#   8]+0.055*[#   9]+0.055*[#  17]
          +0.055*[#  18]
    |psi|^2 = 0.997
==== e(  12) =    -8.52339 eV ==== 
     psi = 0.303*[#   6]+0.303*[#  15]+0.097*[#   8]+0.097*[#   9]+0.097*[#  17]
          +0.097*[#  18]
    |psi|^2 = 0.997
==== e(  13) =    -5.30865 eV ==== 
     psi = 0.246*[#   8]+0.246*[#   9]+0.246*[#  17]+0.246*[#  18]+0.006*[#   6]
          +0.006*[#  15]
    |psi|^2 = 0.997
==== e(  14) =    -2.95762 eV ==== 
     psi = 0.494*[#   7]+0.494*[#  16]
    |psi|^2 = 0.988
==== e(  15) =    -0.73877 eV ==== 
     psi = 0.479*[#   7]+0.479*[#  16]
    |psi|^2 = 0.960
==== e(  16) =     0.30257 eV ==== 
     psi = 0.171*[#   6]+0.171*[#  15]+0.151*[#   8]+0.151*[#   9]+0.151*[#  17]
          +0.151*[#  18]
    |psi|^2 = 0.946

 k =   0.4833333333  0.0000000000  0.0000000000
==== e(   1) =   -24.31006 eV ==== 
     psi = 0.246*[#   4]+0.246*[#   5]+0.246*[#  13]+0.246*[#  14]+0.008*[#   1]
          +0.008*[#  10]
    |psi|^2 = 1.000
==== e(   2) =   -24.17109 eV ==== 
     psi = 0.193*[#   4]+0.193*[#   5]+0.193*[#  13]+0.193*[#  14]+0.112*[#   1]
          +0.112*[#  10]
    |psi|^2 = 1.000
==== e(   3) =   -24.11356 eV ==== 
     psi = 0.314*[#   1]+0.314*[#  10]+0.092*[#   4]+0.092*[#   5]+0.092*[#  13]
          +0.092*[#  14]+0.001*[#   6]+0.001*[#  15]
    |psi|^2 = 1.000
==== e(   4) =   -24.02084 eV ==== 
     psi = 0.250*[#   2]+0.250*[#   3]+0.250*[#  11]+0.250*[#  12]
    |psi|^2 = 1.000
==== e(   5) =   -23.93050 eV ==== 
     psi = 0.250*[#   2]+0.250*[#   3]+0.250*[#  11]+0.250*[#  12]
    |psi|^2 = 1.000
==== e(   6) =   -23.83423 eV ==== 
     psi = 0.250*[#   2]+0.250*[#   3]+0.250*[#  11]+0.250*[#  12]
    |psi|^2 = 1.000
==== e(   7) =   -23.73950 eV ==== 
     psi = 0.250*[#   2]+0.250*[#   3]+0.250*[#  11]+0.250*[#  12]
    |psi|^2 = 1.000
==== e(   8) =   -23.73552 eV ==== 
     psi = 0.367*[#   1]+0.367*[#  10]+0.066*[#   4]+0.066*[#   5]+0.066*[#  13]
          +0.066*[#  14]
    |psi|^2 = 1.000
==== e(   9) =   -23.71695 eV ==== 
     psi = 0.177*[#   1]+0.177*[#  10]+0.161*[#   4]+0.161*[#   5]+0.161*[#  13]
          +0.161*[#  14]
    |psi|^2 = 1.000
==== e(  10) =   -23.58910 eV ==== 
     psi = 0.239*[#   4]+0.239*[#   5]+0.239*[#  13]+0.239*[#  14]+0.021*[#   1]
          +0.021*[#  10]
    |psi|^2 = 1.000
==== e(  11) =   -10.79355 eV ==== 
     psi = 0.382*[#   6]+0.382*[#  15]+0.057*[#   8]+0.057*[#   9]+0.057*[#  17]
          +0.057*[#  18]
    |psi|^2 = 0.997
==== e(  12) =    -8.65289 eV ==== 
     psi = 0.306*[#   6]+0.306*[#  15]+0.095*[#   8]+0.095*[#   9]+0.095*[#  17]
          +0.095*[#  18]
    |psi|^2 = 0.997
==== e(  13) =    -5.38308 eV ==== 
     psi = 0.246*[#   8]+0.246*[#   9]+0.246*[#  17]+0.246*[#  18]+0.006*[#   6]
          +0.006*[#  15]
    |psi|^2 = 0.997
==== e(  14) =    -2.87121 eV ==== 
     psi = 0.493*[#   7]+0.493*[#  16]
    |psi|^2 = 0.988
==== e(  15) =    -0.85444 eV ==== 
     psi = 0.480*[#   7]+0.480*[#  16]
    |psi|^2 = 0.962
==== e(  16) =     0.41899 eV ==== 
     psi = 0.169*[#   6]+0.169*[#  15]+0.151*[#   8]+0.151*[#   9]+0.151*[#  17]
          +0.151*[#  18]
    |psi|^2 = 0.943

 k =   0.5000000000  0.0000000000  0.0000000000
==== e(   1) =   -24.31526 eV ==== 
     psi = 0.246*[#   4]+0.246*[#   5]+0.246*[#  13]+0.246*[#  14]+0.007*[#   1]
          +0.007*[#  10]
    |psi|^2 = 1.000
==== e(   2) =   -24.16975 eV ==== 
     psi = 0.189*[#   4]+0.189*[#   5]+0.189*[#  13]+0.189*[#  14]+0.120*[#   1]
          +0.120*[#  10]
    |psi|^2 = 1.000
==== e(   3) =   -24.11494 eV ==== 
     psi = 0.306*[#   1]+0.306*[#  10]+0.096*[#   4]+0.096*[#   5]+0.096*[#  13]
          +0.096*[#  14]+0.001*[#   6]+0.001*[#  15]
    |psi|^2 = 1.000
==== e(   4) =   -24.02179 eV ==== 
     psi = 0.250*[#   2]+0.250*[#   3]+0.250*[#  11]+0.250*[#  12]
    |psi|^2 = 1.000
==== e(   5) =   -23.92638 eV ==== 
     psi = 0.250*[#   2]+0.250*[#   3]+0.250*[#  11]+0.250*[#  12]
    |psi|^2 = 1.000
[...]
          +0.110*[#  18]
    |psi|^2 = 0.996
==== e(  13) =    -4.17158 eV ==== 
     psi = 0.498*[#   7]+0.498*[#  16]
    |psi|^2 = 0.997
==== e(  14) =    -3.58540 eV ==== 
     psi = 0.248*[#   8]+0.248*[#   9]+0.248*[#  17]+0.248*[#  18]+0.001*[#   4]
          +0.001*[#   5]+0.001*[#  13]+0.001*[#  14]
    |psi|^2 = 0.996
==== e(  15) =    -2.06275 eV ==== 
     psi = 0.214*[#   6]+0.214*[#  15]+0.139*[#   8]+0.139*[#   9]+0.139*[#  17]
          +0.139*[#  18]
    |psi|^2 = 0.986
==== e(  16) =     0.64399 eV ==== 
     psi = 0.208*[#   8]+0.208*[#   9]+0.208*[#  17]+0.208*[#  18]+0.018*[#   6]
          +0.018*[#  15]+0.001*[#   4]+0.001*[#   5]+0.001*[#  13]+0.001*[#  14]
          
    |psi|^2 = 0.875

 k =   0.1000000000  0.0577350269  0.0000000000
==== e(   1) =   -24.12517 eV ==== 
     psi = 0.255*[#   1]+0.255*[#  10]+0.121*[#   4]+0.121*[#   5]+0.121*[#  13]
          +0.121*[#  14]+0.001*[#   6]+0.001*[#  15]
    |psi|^2 = 1.000
==== e(   2) =   -24.11950 eV ==== 
     psi = 0.249*[#   4]+0.249*[#   5]+0.249*[#  13]+0.249*[#  14]+0.001*[#   8]
          +0.001*[#   9]+0.001*[#  17]+0.001*[#  18]
    |psi|^2 = 1.000
==== e(   3) =   -24.10425 eV ==== 
     psi = 0.233*[#   1]+0.233*[#  10]+0.133*[#   4]+0.133*[#   5]+0.133*[#  13]
          +0.133*[#  14]
    |psi|^2 = 1.000
==== e(   4) =   -23.99721 eV ==== 
     psi = 0.250*[#   2]+0.250*[#   3]+0.250*[#  11]+0.250*[#  12]
    |psi|^2 = 1.000
==== e(   5) =   -23.99121 eV ==== 
     psi = 0.250*[#   2]+0.250*[#   3]+0.250*[#  11]+0.250*[#  12]
    |psi|^2 = 1.000
==== e(   6) =   -23.81212 eV ==== 
     psi = 0.236*[#   4]+0.236*[#   5]+0.236*[#  13]+0.236*[#  14]+0.025*[#   1]
          +0.025*[#  10]+0.001*[#   8]+0.001*[#   9]+0.001*[#  17]+0.001*[#  18]
          
    |psi|^2 = 1.000
==== e(   7) =   -23.80746 eV ==== 
     psi = 0.249*[#   4]+0.249*[#   5]+0.249*[#  13]+0.249*[#  14]+0.001*[#   8]
          +0.001*[#   9]+0.001*[#  17]+0.001*[#  18]
    |psi|^2 = 1.000
==== e(   8) =   -23.76894 eV ==== 
     psi = 0.250*[#   2]+0.250*[#   3]+0.250*[#  11]+0.250*[#  12]
    |psi|^2 = 1.000
==== e(   9) =   -23.76237 eV ==== 
     psi = 0.250*[#   2]+0.250*[#   3]+0.250*[#  11]+0.250*[#  12]
    |psi|^2 = 1.000
==== e(  10) =   -23.70585 eV ==== 
     psi = 0.484*[#   1]+0.484*[#  10]+0.008*[#   4]+0.008*[#   5]+0.008*[#  13]
          +0.008*[#  14]
    |psi|^2 = 1.000
==== e(  11) =   -12.12027 eV ==== 
     psi = 0.484*[#   6]+0.484*[#  15]+0.006*[#   8]+0.006*[#   9]+0.006*[#  17]
          +0.006*[#  18]+0.002*[#   1]+0.002*[#  10]
    |psi|^2 = 0.997
==== e(  12) =    -4.94605 eV ==== 
     psi = 0.280*[#   6]+0.280*[#  15]+0.108*[#   8]+0.108*[#   9]+0.108*[#  17]
          +0.108*[#  18]
    |psi|^2 = 0.996
==== e(  13) =    -4.20322 eV ==== 
     psi = 0.498*[#   7]+0.498*[#  16]
    |psi|^2 = 0.997
==== e(  14) =    -3.52885 eV ==== 
     psi = 0.248*[#   8]+0.248*[#   9]+0.248*[#  17]+0.248*[#  18]+0.001*[#   4]
          +0.001*[#   5]+0.001*[#  13]+0.001*[#  14]
    |psi|^2 = 0.996
==== e(  15) =    -2.23299 eV ==== 
     psi = 0.212*[#   6]+0.212*[#  15]+0.140*[#   8]+0.140*[#   9]+0.140*[#  17]
          +0.140*[#  18]
    |psi|^2 = 0.987
==== e(  16) =     0.62618 eV ==== 
     psi = 0.214*[#   8]+0.214*[#   9]+0.214*[#  17]+0.214*[#  18]+0.013*[#   6]
          +0.013*[#  15]+0.001*[#   4]+0.001*[#   5]+0.001*[#  13]+0.001*[#  14]
          
    |psi|^2 = 0.886

 k =   0.0833333333  0.0481125224  0.0000000000
==== e(   1) =   -24.11984 eV ==== 
     psi = 0.329*[#   1]+0.329*[#  10]+0.084*[#   4]+0.084*[#   5]+0.084*[#  13]
          +0.084*[#  14]+0.001*[#   6]+0.001*[#  15]
    |psi|^2 = 1.000
==== e(   2) =   -24.11284 eV ==== 
     psi = 0.249*[#   4]+0.249*[#   5]+0.249*[#  13]+0.249*[#  14]+0.001*[#   8]
          +0.001*[#   9]+0.001*[#  17]+0.001*[#  18]
    |psi|^2 = 1.000
==== e(   3) =   -24.10361 eV ==== 
     psi = 0.168*[#   4]+0.168*[#   5]+0.168*[#  13]+0.168*[#  14]+0.162*[#   1]
          +0.162*[#  10]
    |psi|^2 = 1.000
==== e(   4) =   -23.99658 eV ==== 
     psi = 0.250*[#   2]+0.250*[#   3]+0.250*[#  11]+0.250*[#  12]
    |psi|^2 = 1.000
==== e(   5) =   -23.99238 eV ==== 
     psi = 0.250*[#   2]+0.250*[#   3]+0.250*[#  11]+0.250*[#  12]
    |psi|^2 = 1.000
==== e(   6) =   -23.81810 eV ==== 
     psi = 0.240*[#   4]+0.240*[#   5]+0.240*[#  13]+0.240*[#  14]+0.017*[#   1]
          +0.017*[#  10]+0.001*[#   8]+0.001*[#   9]+0.001*[#  17]+0.001*[#  18]
          
    |psi|^2 = 1.000
==== e(   7) =   -23.81488 eV ==== 
     psi = 0.249*[#   4]+0.249*[#   5]+0.249*[#  13]+0.249*[#  14]+0.001*[#   8]
          +0.001*[#   9]+0.001*[#  17]+0.001*[#  18]
    |psi|^2 = 1.000
==== e(   8) =   -23.76759 eV ==== 
     psi = 0.250*[#   2]+0.250*[#   3]+0.250*[#  11]+0.250*[#  12]
    |psi|^2 = 1.000
==== e(   9) =   -23.76300 eV ==== 
     psi = 0.250*[#   2]+0.250*[#   3]+0.250*[#  11]+0.250*[#  12]
    |psi|^2 = 1.000
==== e(  10) =   -23.70632 eV ==== 
     psi = 0.490*[#   1]+0.490*[#  10]+0.005*[#   4]+0.005*[#   5]+0.005*[#  13]
          +0.005*[#  14]
    |psi|^2 = 1.000
==== e(  11) =   -12.14625 eV ==== 
     psi = 0.488*[#   6]+0.488*[#  15]+0.004*[#   8]+0.004*[#   9]+0.004*[#  17]
          +0.004*[#  18]+0.002*[#   1]+0.002*[#  10]
    |psi|^2 = 0.997
==== e(  12) =    -4.71364 eV ==== 
     psi = 0.285*[#   6]+0.285*[#  15]+0.105*[#   8]+0.105*[#   9]+0.105*[#  17]
          +0.105*[#  18]
    |psi|^2 = 0.996
==== e(  13) =    -4.23005 eV ==== 
     psi = 0.498*[#   7]+0.498*[#  16]
    |psi|^2 = 0.997
==== e(  14) =    -3.47802 eV ==== 
     psi = 0.248*[#   8]+0.248*[#   9]+0.248*[#  17]+0.248*[#  18]+0.001*[#   4]
          +0.001*[#   5]+0.001*[#  13]+0.001*[#  14]
    |psi|^2 = 0.996
==== e(  15) =    -2.41953 eV ==== 
     psi = 0.208*[#   6]+0.208*[#  15]+0.142*[#   8]+0.142*[#   9]+0.142*[#  17]
          +0.142*[#  18]
    |psi|^2 = 0.989
==== e(  16) =     0.62313 eV ==== 
     psi = 0.219*[#   8]+0.219*[#   9]+0.219*[#  17]+0.219*[#  18]+0.009*[#   6]
          +0.009*[#  15]+0.001*[#   4]+0.001*[#   5]+0.001*[#  13]+0.001*[#  14]
          
    |psi|^2 = 0.898

 k =   0.0666666667  0.0384900179  0.0000000000
==== e(   1) =   -24.11610 eV ==== 
     psi = 0.413*[#   1]+0.413*[#  10]+0.042*[#   4]+0.042*[#   5]+0.042*[#  13]
          +0.042*[#  14]+0.001*[#   6]+0.001*[#  15]
    |psi|^2 = 1.000
==== e(   2) =   -24.10703 eV ==== 
     psi = 0.249*[#   4]+0.249*[#   5]+0.249*[#  13]+0.249*[#  14]+0.001*[#   8]
          +0.001*[#   9]+0.001*[#  17]+0.001*[#  18]
    |psi|^2 = 1.000
==== e(   3) =   -24.10214 eV ==== 
     psi = 0.209*[#   4]+0.209*[#   5]+0.209*[#  13]+0.209*[#  14]+0.080*[#   1]
          +0.080*[#  10]+0.001*[#   8]+0.001*[#   9]+0.001*[#  17]+0.001*[#  18]
          
    |psi|^2 = 1.000
==== e(   4) =   -23.99605 eV ==== 
     psi = 0.250*[#   2]+0.250*[#   3]+0.250*[#  11]+0.250*[#  12]
    |psi|^2 = 1.000
==== e(   5) =   -23.99335 eV ==== 
     psi = 0.250*[#   2]+0.250*[#   3]+0.250*[#  11]+0.250*[#  12]
    |psi|^2 = 1.000
==== e(   6) =   -23.82338 eV ==== 
     psi = 0.243*[#   4]+0.243*[#   5]+0.243*[#  13]+0.243*[#  14]+0.011*[#   1]
          +0.011*[#  10]+0.001*[#   8]+0.001*[#   9]+0.001*[#  17]+0.001*[#  18]
          
    |psi|^2 = 1.000
==== e(   7) =   -23.82132 eV ==== 
     psi = 0.249*[#   4]+0.249*[#   5]+0.249*[#  13]+0.249*[#  14]+0.001*[#   8]
          +0.001*[#   9]+0.001*[#  17]+0.001*[#  18]
    |psi|^2 = 1.000
==== e(   8) =   -23.76649 eV ==== 
     psi = 0.250*[#   2]+0.250*[#   3]+0.250*[#  11]+0.250*[#  12]
    |psi|^2 = 1.000
==== e(   9) =   -23.76353 eV ==== 
     psi = 0.250*[#   2]+0.250*[#   3]+0.250*[#  11]+0.250*[#  12]
    |psi|^2 = 1.000
==== e(  10) =   -23.70664 eV ==== 
     psi = 0.494*[#   1]+0.494*[#  10]+0.003*[#   4]+0.003*[#   5]+0.003*[#  13]
          +0.003*[#  14]
    |psi|^2 = 1.000
==== e(  11) =   -12.16753 eV ==== 
     psi = 0.491*[#   6]+0.491*[#  15]+0.003*[#   8]+0.003*[#   9]+0.003*[#  17]
          +0.003*[#  18]+0.002*[#   1]+0.002*[#  10]
    |psi|^2 = 0.997
==== e(  12) =    -4.48127 eV ==== 
     psi = 0.294*[#   6]+0.294*[#  15]+0.101*[#   8]+0.101*[#   9]+0.101*[#  17]
          +0.101*[#  18]
    |psi|^2 = 0.995
==== e(  13) =    -4.25206 eV ==== 
     psi = 0.498*[#   7]+0.498*[#  16]
    |psi|^2 = 0.997
==== e(  14) =    -3.43418 eV ==== 
     psi = 0.248*[#   8]+0.248*[#   9]+0.248*[#  17]+0.248*[#  18]+0.001*[#   4]
          +0.001*[#   5]+0.001*[#  13]+0.001*[#  14]
    |psi|^2 = 0.996
==== e(  15) =    -2.61850 eV ==== 
     psi = 0.200*[#   6]+0.200*[#  15]+0.147*[#   8]+0.147*[#   9]+0.147*[#  17]
          +0.147*[#  18]
    |psi|^2 = 0.990
==== e(  16) =     0.62986 eV ==== 
     psi = 0.223*[#   8]+0.223*[#   9]+0.223*[#  17]+0.223*[#  18]+0.006*[#   6]
          +0.006*[#  15]+0.001*[#   4]+0.001*[#   5]+0.001*[#  13]+0.001*[#  14]
          
    |psi|^2 = 0.910

 k =   0.0500000000  0.0288675135  0.0000000000
==== e(   1) =   -24.11397 eV ==== 
     psi = 0.470*[#   1]+0.470*[#  10]+0.014*[#   4]+0.014*[#   5]+0.014*[#  13]
          +0.014*[#  14]+0.002*[#   6]+0.002*[#  15]
    |psi|^2 = 1.000
==== e(   2) =   -24.10225 eV ==== 
     psi = 0.249*[#   4]+0.249*[#   5]+0.249*[#  13]+0.249*[#  14]+0.001*[#   8]
          +0.001*[#   9]+0.001*[#  17]+0.001*[#  18]
    |psi|^2 = 1.000
==== e(   3) =   -24.09999 eV ==== 
     psi = 0.236*[#   4]+0.236*[#   5]+0.236*[#  13]+0.236*[#  14]+0.025*[#   1]
          +0.025*[#  10]+0.001*[#   8]+0.001*[#   9]+0.001*[#  17]+0.001*[#  18]
          
    |psi|^2 = 1.000
==== e(   4) =   -23.99563 eV ==== 
     psi = 0.250*[#   2]+0.250*[#   3]+0.250*[#  11]+0.250*[#  12]
    |psi|^2 = 1.000
==== e(   5) =   -23.99410 eV ==== 
     psi = 0.250*[#   2]+0.250*[#   3]+0.250*[#  11]+0.250*[#  12]
    |psi|^2 = 1.000
==== e(   6) =   -23.82776 eV ==== 
     psi = 0.246*[#   4]+0.246*[#   5]+0.246*[#  13]+0.246*[#  14]+0.006*[#   1]
          +0.006*[#  10]+0.001*[#   8]+0.001*[#   9]+0.001*[#  17]+0.001*[#  18]
          
    |psi|^2 = 1.000
==== e(   7) =   -23.82660 eV ==== 
     psi = 0.249*[#   4]+0.249*[#   5]+0.249*[#  13]+0.249*[#  14]+0.001*[#   8]
          +0.001*[#   9]+0.001*[#  17]+0.001*[#  18]
    |psi|^2 = 1.000
==== e(   8) =   -23.76562 eV ==== 
     psi = 0.250*[#   2]+0.250*[#   3]+0.250*[#  11]+0.250*[#  12]
    |psi|^2 = 1.000
==== e(   9) =   -23.76395 eV ==== 
     psi = 0.250*[#   2]+0.250*[#   3]+0.250*[#  11]+0.250*[#  12]
    |psi|^2 = 1.000
==== e(  10) =   -23.70686 eV ==== 
     psi = 0.496*[#   1]+0.496*[#  10]+0.002*[#   4]+0.002*[#   5]+0.002*[#  13]
          +0.002*[#  14]
    |psi|^2 = 1.000
==== e(  11) =   -12.18409 eV ==== 
     psi = 0.493*[#   6]+0.493*[#  15]+0.002*[#   1]+0.002*[#   8]+0.002*[#   9]
          +0.002*[#  10]+0.002*[#  17]+0.002*[#  18]
    |psi|^2 = 0.997
==== e(  12) =    -4.26921 eV ==== 
     psi = 0.499*[#   7]+0.499*[#  16]
    |psi|^2 = 0.997
==== e(  13) =    -4.25046 eV ==== 
     psi = 0.308*[#   6]+0.308*[#  15]+0.094*[#   8]+0.094*[#   9]+0.094*[#  17]
          +0.094*[#  18]
    |psi|^2 = 0.994
==== e(  14) =    -3.39853 eV ==== 
     psi = 0.248*[#   8]+0.248*[#   9]+0.248*[#  17]+0.248*[#  18]+0.001*[#   4]
          +0.001*[#   5]+0.001*[#  13]+0.001*[#  14]
    |psi|^2 = 0.996
==== e(  15) =    -2.82587 eV ==== 
     psi = 0.186*[#   6]+0.186*[#  15]+0.154*[#   8]+0.154*[#   9]+0.154*[#  17]
          +0.154*[#  18]
    |psi|^2 = 0.991
==== e(  16) =     0.64159 eV ==== 
     psi = 0.228*[#   8]+0.228*[#   9]+0.228*[#  17]+0.228*[#  18]+0.003*[#   6]
          +0.003*[#  15]+0.001*[#   4]+0.001*[#   5]+0.001*[#  13]+0.001*[#  14]
          
    |psi|^2 = 0.923

 k =   0.0333333333  0.0192450090  0.0000000000
==== e(   1) =   -24.11295 eV ==== 
     psi = 0.492*[#   1]+0.492*[#  10]+0.003*[#   4]+0.003*[#   5]+0.003*[#  13]
          +0.003*[#  14]+0.002*[#   6]+0.002*[#  15]
    |psi|^2 = 1.000
==== e(   2) =   -24.09868 eV ==== 
     psi = 0.249*[#   4]+0.249*[#   5]+0.249*[#  13]+0.249*[#  14]+0.001*[#   8]
          +0.001*[#   9]+0.001*[#  17]+0.001*[#  18]
    |psi|^2 = 1.000
==== e(   3) =   -24.09781 eV ==== 
     psi = 0.246*[#   4]+0.246*[#   5]+0.246*[#  13]+0.246*[#  14]+0.005*[#   1]
          +0.005*[#  10]+0.001*[#   8]+0.001*[#   9]+0.001*[#  17]+0.001*[#  18]
          
    |psi|^2 = 1.000
==== e(   4) =   -23.99533 eV ==== 
     psi = 0.250*[#   2]+0.250*[#   3]+0.250*[#  11]+0.250*[#  12]
    |psi|^2 = 1.000
==== e(   5) =   -23.99464 eV ==== 
     psi = 0.250*[#   2]+0.250*[#   3]+0.250*[#  11]+0.250*[#  12]
    |psi|^2 = 1.000
==== e(   6) =   -23.83104 eV ==== 
     psi = 0.247*[#   4]+0.247*[#   5]+0.247*[#  13]+0.247*[#  14]+0.003*[#   1]
          +0.003*[#  10]+0.001*[#   8]+0.001*[#   9]+0.001*[#  17]+0.001*[#  18]
          
    |psi|^2 = 1.000
==== e(   7) =   -23.83052 eV ==== 
     psi = 0.249*[#   4]+0.249*[#   5]+0.249*[#  13]+0.249*[#  14]+0.001*[#   8]
          +0.001*[#   9]+0.001*[#  17]+0.001*[#  18]
    |psi|^2 = 1.000
==== e(   8) =   -23.76499 eV ==== 
     psi = 0.250*[#   2]+0.250*[#   3]+0.250*[#  11]+0.250*[#  12]
    |psi|^2 = 1.000
==== e(   9) =   -23.76425 eV ==== 
     psi = 0.250*[#   2]+0.250*[#   3]+0.250*[#  11]+0.250*[#  12]
    |psi|^2 = 1.000
==== e(  10) =   -23.70699 eV ==== 
     psi = 0.498*[#   1]+0.498*[#  10]
    |psi|^2 = 1.000
==== e(  11) =   -12.19593 eV ==== 
     psi = 0.495*[#   6]+0.495*[#  15]+0.002*[#   1]+0.002*[#  10]
    |psi|^2 = 0.997
==== e(  12) =    -4.28148 eV ==== 
     psi = 0.499*[#   7]+0.499*[#  16]
    |psi|^2 = 0.997
==== e(  13) =    -4.02467 eV ==== 
     psi = 0.334*[#   6]+0.334*[#  15]+0.080*[#   8]+0.080*[#   9]+0.080*[#  17]
          +0.080*[#  18]
    |psi|^2 = 0.993
==== e(  14) =    -3.37219 eV ==== 
     psi = 0.248*[#   8]+0.248*[#   9]+0.248*[#  17]+0.248*[#  18]+0.001*[#   4]
          +0.001*[#   5]+0.001*[#  13]+0.001*[#  14]
    |psi|^2 = 0.996
==== e(  15) =    -3.03625 eV ==== 
     psi = 0.167*[#   8]+0.167*[#   9]+0.167*[#  17]+0.167*[#  18]+0.160*[#   6]
          +0.160*[#  15]
    |psi|^2 = 0.992
==== e(  16) =     0.65393 eV ==== 
     psi = 0.232*[#   8]+0.232*[#   9]+0.232*[#  17]+0.232*[#  18]+0.001*[#   6]
          +0.001*[#  15]+0.001*[#   4]+0.001*[#   5]+0.001*[#  13]+0.001*[#  14]
          
    |psi|^2 = 0.935

 k =   0.0166666667  0.0096225045  0.0000000000
==== e(   1) =   -24.11252 eV ==== 
     psi = 0.497*[#   1]+0.497*[#  10]+0.002*[#   6]+0.002*[#  15]
    |psi|^2 = 1.000
==== e(   2) =   -24.09647 eV ==== 
     psi = 0.249*[#   4]+0.249*[#   5]+0.249*[#  13]+0.249*[#  14]+0.001*[#   8]
          +0.001*[#   9]+0.001*[#  17]+0.001*[#  18]
    |psi|^2 = 1.000
==== e(   3) =   -24.09627 eV ==== 
     psi = 0.248*[#   4]+0.248*[#   5]+0.248*[#  13]+0.248*[#  14]+0.001*[#   8]
          +0.001*[#   9]+0.001*[#  17]+0.001*[#  18]
    |psi|^2 = 1.000
==== e(   4) =   -23.99514 eV ==== 
     psi = 0.250*[#   2]+0.250*[#   3]+0.250*[#  11]+0.250*[#  12]
    |psi|^2 = 1.000
==== e(   5) =   -23.99497 eV ==== 
     psi = 0.250*[#   2]+0.250*[#   3]+0.250*[#  11]+0.250*[#  12]
    |psi|^2 = 1.000
==== e(   6) =   -23.83308 eV ==== 
     psi = 0.248*[#   4]+0.248*[#   5]+0.248*[#  13]+0.248*[#  14]+0.001*[#   8]
          +0.001*[#   9]+0.001*[#  17]+0.001*[#  18]
    |psi|^2 = 1.000
==== e(   7) =   -23.83295 eV ==== 
     psi = 0.249*[#   4]+0.249*[#   5]+0.249*[#  13]+0.249*[#  14]+0.001*[#   8]
          +0.001*[#   9]+0.001*[#  17]+0.001*[#  18]
    |psi|^2 = 1.000
==== e(   8) =   -23.76462 eV ==== 
     psi = 0.250*[#   2]+0.250*[#   3]+0.250*[#  11]+0.250*[#  12]
    |psi|^2 = 1.000
==== e(   9) =   -23.76443 eV ==== 
     psi = 0.250*[#   2]+0.250*[#   3]+0.250*[#  11]+0.250*[#  12]
    |psi|^2 = 1.000
==== e(  10) =   -23.70707 eV ==== 
     psi = 0.499*[#   1]+0.499*[#  10]
    |psi|^2 = 1.000
==== e(  11) =   -12.20303 eV ==== 
     psi = 0.496*[#   6]+0.496*[#  15]+0.002*[#   1]+0.002*[#  10]
    |psi|^2 = 0.997
==== e(  12) =    -4.28885 eV ==== 
     psi = 0.499*[#   7]+0.499*[#  16]
    |psi|^2 = 0.997
==== e(  13) =    -3.81607 eV ==== 
     psi = 0.396*[#   6]+0.396*[#  15]+0.050*[#   8]+0.050*[#   9]+0.050*[#  17]
          +0.050*[#  18]
    |psi|^2 = 0.992
==== e(  14) =    -3.35601 eV ==== 
     psi = 0.248*[#   8]+0.248*[#   9]+0.248*[#  17]+0.248*[#  18]+0.001*[#   4]
          +0.001*[#   5]+0.001*[#  13]+0.001*[#  14]
    |psi|^2 = 0.996
==== e(  15) =    -3.23612 eV ==== 
     psi = 0.198*[#   8]+0.198*[#   9]+0.198*[#  17]+0.198*[#  18]+0.099*[#   6]
          +0.099*[#  15]
    |psi|^2 = 0.994
==== e(  16) =     0.66312 eV ==== 
     psi = 0.235*[#   8]+0.235*[#   9]+0.235*[#  17]+0.235*[#  18]+0.001*[#   4]
          +0.001*[#   5]+0.001*[#  13]+0.001*[#  14]
    |psi|^2 = 0.945

 k =   0.0000000000  0.0000000000  0.0000000000
==== e(   1) =   -24.11240 eV ==== 
     psi = 0.498*[#   1]+0.498*[#  10]+0.002*[#   6]+0.002*[#  15]
    |psi|^2 = 1.000
==== e(   2) =   -24.09572 eV ==== 
     psi = 0.249*[#   4]+0.249*[#   5]+0.249*[#  13]+0.249*[#  14]+0.001*[#   8]
          +0.001*[#   9]+0.001*[#  17]+0.001*[#  18]
    |psi|^2 = 1.000
==== e(   3) =   -24.09572 eV ==== 
     psi = 0.249*[#   4]+0.249*[#   5]+0.249*[#  13]+0.249*[#  14]+0.001*[#   8]
          +0.001*[#   9]+0.001*[#  17]+0.001*[#  18]
    |psi|^2 = 1.000
==== e(   4) =   -23.99508 eV ==== 
     psi = 0.250*[#   2]+0.250*[#   3]+0.250*[#  11]+0.250*[#  12]
    |psi|^2 = 1.000
==== e(   5) =   -23.99508 eV ==== 
     psi = 0.250*[#   2]+0.250*[#   3]+0.250*[#  11]+0.250*[#  12]
    |psi|^2 = 1.000
==== e(   6) =   -23.83377 eV ==== 
     psi = 0.249*[#   4]+0.249*[#   5]+0.249*[#  13]+0.249*[#  14]+0.001*[#   8]
          +0.001*[#   9]+0.001*[#  17]+0.001*[#  18]
    |psi|^2 = 1.000
==== e(   7) =   -23.83377 eV ==== 
     psi = 0.249*[#   4]+0.249*[#   5]+0.249*[#  13]+0.249*[#  14]+0.001*[#   8]
          +0.001*[#   9]+0.001*[#  17]+0.001*[#  18]
    |psi|^2 = 1.000
==== e(   8) =   -23.76449 eV ==== 
     psi = 0.250*[#   2]+0.250*[#   3]+0.250*[#  11]+0.250*[#  12]
    |psi|^2 = 1.000
==== e(   9) =   -23.76449 eV ==== 
     psi = 0.250*[#   2]+0.250*[#   3]+0.250*[#  11]+0.250*[#  12]
    |psi|^2 = 1.000
==== e(  10) =   -23.70709 eV ==== 
     psi = 0.499*[#   1]+0.499*[#  10]
    |psi|^2 = 1.000
==== e(  11) =   -12.20540 eV ==== 
     psi = 0.497*[#   6]+0.497*[#  15]+0.002*[#   1]+0.002*[#  10]
    |psi|^2 = 0.997
==== e(  12) =    -4.29130 eV ==== 
     psi = 0.499*[#   7]+0.499*[#  16]
    |psi|^2 = 0.997
==== e(  13) =    -3.69882 eV ==== 
     psi = 0.494*[#   6]+0.494*[#  15]
    |psi|^2 = 0.990
==== e(  14) =    -3.35055 eV ==== 
     psi = 0.248*[#   8]+0.248*[#   9]+0.248*[#  17]+0.248*[#  18]+0.001*[#   4]
          +0.001*[#   5]+0.001*[#  13]+0.001*[#  14]
    |psi|^2 = 0.996
==== e(  15) =    -3.35055 eV ==== 
     psi = 0.248*[#   8]+0.248*[#   9]+0.248*[#  17]+0.248*[#  18]+0.001*[#   4]
          +0.001*[#   5]+0.001*[#  13]+0.001*[#  14]
    |psi|^2 = 0.996
==== e(  16) =     0.66651 eV ==== 
     psi = 0.236*[#   8]+0.236*[#   9]+0.236*[#  17]+0.236*[#  18]+0.001*[#   4]
          +0.001*[#   5]+0.001*[#  13]+0.001*[#  14]
    |psi|^2 = 0.948

Lowdin Charges: 

     Atom #   1: total charge =  14.0229, s =  1.4891, 
     Atom #   1: total charge =  14.0229, p =  2.5427, pz=  0.8908, px=  0.8259, py=  0.8259, 
     Atom #   1: total charge =  14.0229, d =  9.9911, dz2=  1.9987, dxz=  1.9994, dyz=  1.9994, dx2-y2=  1.9968, dxy=  1.9968, 
     Atom #   2: total charge =  14.0229, s =  1.4891, 
     Atom #   2: total charge =  14.0229, p =  2.5427, pz=  0.8908, px=  0.8259, py=  0.8259, 
     Atom #   2: total charge =  14.0229, d =  9.9911, dz2=  1.9987, dxz=  1.9994, dyz=  1.9994, dx2-y2=  1.9968, dxy=  1.9968, 
     Spilling Parameter:  -0.0016

     PROJWFC      :   1m33.58s CPU   2m56.23s WALL


   This run was terminated on:  18:47:58  23Jun2024            

=------------------------------------------------------------------------------=
   JOB DONE.
=------------------------------------------------------------------------------=
