
     Program PWSCF v.7.2 starts on 23Jun2024 at 17:33:11 

     This program is part of the open-source Quantum ESPRESSO suite
     for quantum simulation of materials; please cite
         "P. Giannozzi et al., J. Phys.:Condens. Matter 21 395502 (2009);
         "P. Giannozzi et al., J. Phys.:Condens. Matter 29 465901 (2017);
         "P. Giannozzi et al., J. Chem. Phys. 152 154105 (2020);
          URL http://www.quantum-espresso.org", 
     in publications or presentations arising from this work. More details at
     http://www.quantum-espresso.org/quote

     Parallel version (MPI), running on     6 processors

     MPI processes distributed on     1 nodes
     5195 MiB available memory on the printing compute node when the environment starts

     Waiting for input...
     Reading input from standard input

     Current dimensions of program PWSCF are:
     Max number of different atomic species (ntypx) = 10
     Max number of k-points (npk) =  40000
     Max angular momentum in pseudopotentials (lmaxx) =  4

     Atomic positions and unit cell read from directory:
     ../tmp/stanene.save/
     Atomic positions from file used, from input discarded


     R & G space division:  proc/nbgrp/npool/nimage =       6
     Subspace diagonalization in iterative solution of the eigenvalue problem:
     a serial algorithm will be used


     Parallelization info
     --------------------
     sticks:   dense  smooth     PW     G-vecs:    dense   smooth      PW
     Min         431     214     61                75909    26818    4015
     Max         432     215     62                75924    26841    4025
     Sum        2587    1285    367               455489   160939   24117

     Using Slab Decomposition



     bravais-lattice index     =            4
     lattice parameter (alat)  =       8.8506  a.u.
     unit-cell volume          =    2563.9136 (a.u.)^3
     number of atoms/cell      =            2
     number of atomic types    =            1
     number of electrons       =        28.00
     number of Kohn-Sham states=           16
     kinetic-energy cutoff     =      60.0000  Ry
     charge density cutoff     =     480.0000  Ry
     Exchange-correlation= SLA  PW   PBE  PBE
                           (   1   4   3   4   0   0   0)

     celldm(1)=   8.850584  celldm(2)=   0.000000  celldm(3)=   4.270286
     celldm(4)=   0.000000  celldm(5)=   0.000000  celldm(6)=   0.000000

     crystal axes: (cart. coord. in units of alat)
               a(1) = (   1.000000   0.000000   0.000000 )  
               a(2) = (  -0.500000   0.866025   0.000000 )  
               a(3) = (   0.000000   0.000000   4.270286 )  

     reciprocal axes: (cart. coord. in units 2 pi/alat)
               b(1) = (  1.000000  0.577350 -0.000000 )  
               b(2) = (  0.000000  1.154701  0.000000 )  
               b(3) = (  0.000000 -0.000000  0.234176 )  


     PseudoPot. # 1 for Sn read from file:
     ../pseudo/Sn_pbe_v1.uspp.F.UPF
     MD5 check sum: 4cf58ce39ec5d5d420df3dd08604eb00
     Pseudo is Ultrasoft + core correction, Zval = 14.0
     Generated by new atomic code, or converted to UPF format
     Using radial grid of  891 points,  6 beta functions with: 
                l(1) =   0
                l(2) =   0
                l(3) =   1
                l(4) =   1
                l(5) =   2
                l(6) =   2
     Q(r) pseudized with  6 coefficients,  rinner =    1.200   1.200   1.200
                                                       1.200   1.200

     atomic species   valence    mass     pseudopotential
        Sn            14.00   118.71000     Sn( 1.00)

     24 Sym. Ops., with inversion, found


                                    s                        frac. trans.

      isym =  1     identity                                     

 cryst.   s( 1) = (     1          0          0      )
                  (     0          1          0      )
                  (     0          0          1      )

 cart.    s( 1) = (  1.0000000  0.0000000  0.0000000 )
                  (  0.0000000  1.0000000  0.0000000 )
                  (  0.0000000  0.0000000  1.0000000 )


      isym =  2     180 deg rotation - cart. axis [0,0,1]        

 cryst.   s( 2) = (    -1          0          0      )
                  (     0         -1          0      )
                  (     0          0          1      )

 cart.    s( 2) = ( -1.0000000  0.0000000  0.0000000 )
                  (  0.0000000 -1.0000000  0.0000000 )
                  (  0.0000000  0.0000000  1.0000000 )


      isym =  3     180 deg rotation - cart. axis [0,1,0]        

 cryst.   s( 3) = (    -1          0          0      )
                  (     1          1          0      )
                  (     0          0         -1      )

 cart.    s( 3) = ( -1.0000000  0.0000000  0.0000000 )
                  (  0.0000000  1.0000000  0.0000000 )
                  (  0.0000000  0.0000000 -1.0000000 )


      isym =  4     180 deg rotation - cart. axis [1,0,0]        

 cryst.   s( 4) = (     1          0          0      )
                  (    -1         -1          0      )
                  (     0          0         -1      )

 cart.    s( 4) = (  1.0000000  0.0000000  0.0000000 )
                  (  0.0000000 -1.0000000  0.0000000 )
                  (  0.0000000  0.0000000 -1.0000000 )


      isym =  5      60 deg rotation - cryst. axis [0,0,1]       

 cryst.   s( 5) = (     1          1          0      )
                  (    -1          0          0      )
                  (     0          0          1      )

 cart.    s( 5) = (  0.5000000 -0.8660254  0.0000000 )
                  (  0.8660254  0.5000000  0.0000000 )
                  (  0.0000000  0.0000000  1.0000000 )


      isym =  6      60 deg rotation - cryst. axis [0,0,-1]      

 cryst.   s( 6) = (     0         -1          0      )
                  (     1          1          0      )
                  (     0          0          1      )

 cart.    s( 6) = (  0.5000000  0.8660254  0.0000000 )
                  ( -0.8660254  0.5000000  0.0000000 )
                  (  0.0000000  0.0000000  1.0000000 )


      isym =  7     120 deg rotation - cryst. axis [0,0,1]       

 cryst.   s( 7) = (     0          1          0      )
                  (    -1         -1          0      )
                  (     0          0          1      )

 cart.    s( 7) = ( -0.5000000 -0.8660254  0.0000000 )
                  (  0.8660254 -0.5000000  0.0000000 )
                  (  0.0000000  0.0000000  1.0000000 )


      isym =  8     120 deg rotation - cryst. axis [0,0,-1]      

 cryst.   s( 8) = (    -1         -1          0      )
                  (     1          0          0      )
                  (     0          0          1      )

 cart.    s( 8) = ( -0.5000000  0.8660254  0.0000000 )
                  ( -0.8660254 -0.5000000  0.0000000 )
                  (  0.0000000  0.0000000  1.0000000 )


      isym =  9     180 deg rotation - cryst. axis [1,-1,0]      

 cryst.   s( 9) = (     0         -1          0      )
                  (    -1          0          0      )
                  (     0          0         -1      )

 cart.    s( 9) = (  0.5000000 -0.8660254  0.0000000 )
                  ( -0.8660254 -0.5000000  0.0000000 )
                  (  0.0000000  0.0000000 -1.0000000 )


      isym = 10     180 deg rotation - cryst. axis [2,1,0]       

 cryst.   s(10) = (     1          1          0      )
                  (     0         -1          0      )
                  (     0          0         -1      )

 cart.    s(10) = (  0.5000000  0.8660254  0.0000000 )
                  (  0.8660254 -0.5000000  0.0000000 )
                  (  0.0000000  0.0000000 -1.0000000 )


      isym = 11     180 deg rotation - cryst. axis [0,1,0]       

 cryst.   s(11) = (    -1         -1          0      )
                  (     0          1          0      )
                  (     0          0         -1      )

 cart.    s(11) = ( -0.5000000 -0.8660254  0.0000000 )
                  ( -0.8660254  0.5000000  0.0000000 )
                  (  0.0000000  0.0000000 -1.0000000 )


      isym = 12     180 deg rotation - cryst. axis [1,1,0]       

 cryst.   s(12) = (     0          1          0      )
                  (     1          0          0      )
                  (     0          0         -1      )

 cart.    s(12) = ( -0.5000000  0.8660254  0.0000000 )
                  (  0.8660254  0.5000000  0.0000000 )
                  (  0.0000000  0.0000000 -1.0000000 )


      isym = 13     inversion                                    

 cryst.   s(13) = (    -1          0          0      )
                  (     0         -1          0      )
                  (     0          0         -1      )

 cart.    s(13) = ( -1.0000000  0.0000000  0.0000000 )
                  (  0.0000000 -1.0000000  0.0000000 )
                  (  0.0000000  0.0000000 -1.0000000 )


      isym = 14     inv. 180 deg rotation - cart. axis [0,0,1]   

 cryst.   s(14) = (     1          0          0      )
                  (     0          1          0      )
                  (     0          0         -1      )

 cart.    s(14) = (  1.0000000  0.0000000  0.0000000 )
                  (  0.0000000  1.0000000  0.0000000 )
                  (  0.0000000  0.0000000 -1.0000000 )


      isym = 15     inv. 180 deg rotation - cart. axis [0,1,0]   

 cryst.   s(15) = (     1          0          0      )
                  (    -1         -1          0      )
                  (     0          0          1      )

 cart.    s(15) = (  1.0000000  0.0000000  0.0000000 )
                  (  0.0000000 -1.0000000  0.0000000 )
                  (  0.0000000  0.0000000  1.0000000 )


      isym = 16     inv. 180 deg rotation - cart. axis [1,0,0]   

 cryst.   s(16) = (    -1          0          0      )
                  (     1          1          0      )
                  (     0          0          1      )

 cart.    s(16) = ( -1.0000000  0.0000000  0.0000000 )
                  (  0.0000000  1.0000000  0.0000000 )
                  (  0.0000000  0.0000000  1.0000000 )


      isym = 17     inv.  60 deg rotation - cryst. axis [0,0,1]  

 cryst.   s(17) = (    -1         -1          0      )
                  (     1          0          0      )
                  (     0          0         -1      )

 cart.    s(17) = ( -0.5000000  0.8660254  0.0000000 )
                  ( -0.8660254 -0.5000000  0.0000000 )
                  (  0.0000000  0.0000000 -1.0000000 )


      isym = 18     inv.  60 deg rotation - cryst. axis [0,0,-1] 

 cryst.   s(18) = (     0          1          0      )
                  (    -1         -1          0      )
                  (     0          0         -1      )

 cart.    s(18) = ( -0.5000000 -0.8660254  0.0000000 )
                  (  0.8660254 -0.5000000  0.0000000 )
                  (  0.0000000  0.0000000 -1.0000000 )


      isym = 19     inv. 120 deg rotation - cryst. axis [0,0,1]  

 cryst.   s(19) = (     0         -1          0      )
                  (     1          1          0      )
                  (     0          0         -1      )

 cart.    s(19) = (  0.5000000  0.8660254  0.0000000 )
                  ( -0.8660254  0.5000000  0.0000000 )
                  (  0.0000000  0.0000000 -1.0000000 )


      isym = 20     inv. 120 deg rotation - cryst. axis [0,0,-1] 

 cryst.   s(20) = (     1          1          0      )
                  (    -1          0          0      )
                  (     0          0         -1      )

 cart.    s(20) = (  0.5000000 -0.8660254  0.0000000 )
                  (  0.8660254  0.5000000  0.0000000 )
                  (  0.0000000  0.0000000 -1.0000000 )


      isym = 21     inv. 180 deg rotation - cryst. axis [1,-1,0] 

 cryst.   s(21) = (     0          1          0      )
                  (     1          0          0      )
                  (     0          0          1      )

 cart.    s(21) = ( -0.5000000  0.8660254  0.0000000 )
                  (  0.8660254  0.5000000  0.0000000 )
                  (  0.0000000  0.0000000  1.0000000 )


      isym = 22     inv. 180 deg rotation - cryst. axis [2,1,0]  

 cryst.   s(22) = (    -1         -1          0      )
                  (     0          1          0      )
                  (     0          0          1      )

 cart.    s(22) = ( -0.5000000 -0.8660254  0.0000000 )
                  ( -0.8660254  0.5000000  0.0000000 )
                  (  0.0000000  0.0000000  1.0000000 )


      isym = 23     inv. 180 deg rotation - cryst. axis [0,1,0]  

 cryst.   s(23) = (     1          1          0      )
                  (     0         -1          0      )
                  (     0          0          1      )

 cart.    s(23) = (  0.5000000  0.8660254  0.0000000 )
                  (  0.8660254 -0.5000000  0.0000000 )
                  (  0.0000000  0.0000000  1.0000000 )


      isym = 24     inv. 180 deg rotation - cryst. axis [1,1,0]  

 cryst.   s(24) = (     0         -1          0      )
                  (    -1          0          0      )
                  (     0          0          1      )

 cart.    s(24) = (  0.5000000 -0.8660254  0.0000000 )
                  ( -0.8660254 -0.5000000  0.0000000 )
                  (  0.0000000  0.0000000  1.0000000 )


     point group D_6h(6/mmm)
     there are 12 classes
     the character table:

       E     2C6   2C3   C2    3C2'  3C2'' i     2S3   2S6   s_h   3s_d  3s_v 
A_1g   1.00  1.00  1.00  1.00  1.00  1.00  1.00  1.00  1.00  1.00  1.00  1.00
A_2g   1.00  1.00  1.00  1.00 -1.00 -1.00  1.00  1.00  1.00  1.00 -1.00 -1.00
B_1g   1.00 -1.00  1.00 -1.00  1.00 -1.00  1.00 -1.00  1.00 -1.00  1.00 -1.00
B_2g   1.00 -1.00  1.00 -1.00 -1.00  1.00  1.00 -1.00  1.00 -1.00 -1.00  1.00
E_1g   2.00  1.00 -1.00 -2.00  0.00  0.00  2.00  1.00 -1.00 -2.00  0.00  0.00
E_2g   2.00 -1.00 -1.00  2.00  0.00  0.00  2.00 -1.00 -1.00  2.00  0.00  0.00
A_1u   1.00  1.00  1.00  1.00  1.00  1.00 -1.00 -1.00 -1.00 -1.00 -1.00 -1.00
A_2u   1.00  1.00  1.00  1.00 -1.00 -1.00 -1.00 -1.00 -1.00 -1.00  1.00  1.00
B_1u   1.00 -1.00  1.00 -1.00  1.00 -1.00 -1.00  1.00 -1.00  1.00 -1.00  1.00
B_2u   1.00 -1.00  1.00 -1.00 -1.00  1.00 -1.00  1.00 -1.00  1.00  1.00 -1.00
E_1u   2.00  1.00 -1.00 -2.00  0.00  0.00 -2.00 -1.00  1.00  2.00  0.00  0.00
E_2u   2.00 -1.00 -1.00  2.00  0.00  0.00 -2.00  1.00  1.00 -2.00  0.00  0.00

     the symmetry operations in each class and the name of the first element:

     E        1
          identity                                               
     2C6      5    6
           60 deg rotation - cryst. axis [0,0,1]                 
     2C3      7    8
          120 deg rotation - cryst. axis [0,0,1]                 
     C2       2
          180 deg rotation - cart. axis [0,0,1]                  
     3C2'     4   12   11
          180 deg rotation - cart. axis [1,0,0]                  
     3C2''    3    9   10
          180 deg rotation - cart. axis [0,1,0]                  
     i       13
          inversion                                              
     2S3     17   18
          inv.  60 deg rotation - cryst. axis [0,0,1]            
     2S6     19   20
          inv. 120 deg rotation - cryst. axis [0,0,1]            
     s_h     14
          inv. 180 deg rotation - cart. axis [0,0,1]             
     3s_d    16   24   23
          inv. 180 deg rotation - cart. axis [1,0,0]             
     3s_v    15   21   22
          inv. 180 deg rotation - cart. axis [0,1,0]             

   Cartesian axes

     site n.     atom                  positions (alat units)
         1           Sn  tau(   1) = (   0.0000000   0.5773503   2.1351428  )
         2           Sn  tau(   2) = (   0.5000000   0.2886751   2.1351428  )

   Crystallographic axes

     site n.     atom                  positions (cryst. coord.)
         1           Sn  tau(   1) = (  0.3333333  0.6666667  0.5000000  )
         2           Sn  tau(   2) = (  0.6666667  0.3333333  0.5000000  )

     number of k points=    91  Methfessel-Paxton smearing, width (Ry)=  0.0200
                       cart. coord. in units 2pi/alat
        k(    1) = (   0.0000000   0.0000000   0.0000000), wk =   0.0219780
        k(    2) = (   0.0166667   0.0000000   0.0000000), wk =   0.0219780
        k(    3) = (   0.0333333   0.0000000   0.0000000), wk =   0.0219780
        k(    4) = (   0.0500000   0.0000000   0.0000000), wk =   0.0219780
        k(    5) = (   0.0666667   0.0000000   0.0000000), wk =   0.0219780
        k(    6) = (   0.0833333   0.0000000   0.0000000), wk =   0.0219780
        k(    7) = (   0.1000000   0.0000000   0.0000000), wk =   0.0219780
        k(    8) = (   0.1166667   0.0000000   0.0000000), wk =   0.0219780
        k(    9) = (   0.1333333   0.0000000   0.0000000), wk =   0.0219780
        k(   10) = (   0.1500000   0.0000000   0.0000000), wk =   0.0219780
        k(   11) = (   0.1666667   0.0000000   0.0000000), wk =   0.0219780
        k(   12) = (   0.1833333   0.0000000   0.0000000), wk =   0.0219780
        k(   13) = (   0.2000000   0.0000000   0.0000000), wk =   0.0219780
        k(   14) = (   0.2166667   0.0000000   0.0000000), wk =   0.0219780
        k(   15) = (   0.2333333   0.0000000   0.0000000), wk =   0.0219780
        k(   16) = (   0.2500000   0.0000000   0.0000000), wk =   0.0219780
        k(   17) = (   0.2666667   0.0000000   0.0000000), wk =   0.0219780
        k(   18) = (   0.2833333   0.0000000   0.0000000), wk =   0.0219780
        k(   19) = (   0.3000000   0.0000000   0.0000000), wk =   0.0219780
        k(   20) = (   0.3166667   0.0000000   0.0000000), wk =   0.0219780
        k(   21) = (   0.3333333   0.0000000   0.0000000), wk =   0.0219780
        k(   22) = (   0.3500000   0.0000000   0.0000000), wk =   0.0219780
        k(   23) = (   0.3666667   0.0000000   0.0000000), wk =   0.0219780
        k(   24) = (   0.3833333   0.0000000   0.0000000), wk =   0.0219780
        k(   25) = (   0.4000000   0.0000000   0.0000000), wk =   0.0219780
        k(   26) = (   0.4166667   0.0000000   0.0000000), wk =   0.0219780
        k(   27) = (   0.4333333   0.0000000   0.0000000), wk =   0.0219780
        k(   28) = (   0.4500000   0.0000000   0.0000000), wk =   0.0219780
        k(   29) = (   0.4666667   0.0000000   0.0000000), wk =   0.0219780
        k(   30) = (   0.4833333   0.0000000   0.0000000), wk =   0.0219780
        k(   31) = (   0.5000000   0.0000000   0.0000000), wk =   0.0219780
        k(   32) = (   0.5166667   0.0000000   0.0000000), wk =   0.0219780
        k(   33) = (   0.5333333   0.0000000   0.0000000), wk =   0.0219780
        k(   34) = (   0.5500000   0.0000000   0.0000000), wk =   0.0219780
        k(   35) = (   0.5666667   0.0000000   0.0000000), wk =   0.0219780
        k(   36) = (   0.5833333   0.0000000   0.0000000), wk =   0.0219780
        k(   37) = (   0.6000000   0.0000000   0.0000000), wk =   0.0219780
        k(   38) = (   0.6166667   0.0000000   0.0000000), wk =   0.0219780
        k(   39) = (   0.6333333   0.0000000   0.0000000), wk =   0.0219780
        k(   40) = (   0.6500000   0.0000000   0.0000000), wk =   0.0219780
        k(   41) = (   0.6666667   0.0000000   0.0000000), wk =   0.0219780
        k(   42) = (   0.6583333   0.0144338   0.0000000), wk =   0.0219780
        k(   43) = (   0.6500000   0.0288675   0.0000000), wk =   0.0219780
        k(   44) = (   0.6416667   0.0433013   0.0000000), wk =   0.0219780
        k(   45) = (   0.6333333   0.0577350   0.0000000), wk =   0.0219780
        k(   46) = (   0.6250000   0.0721688   0.0000000), wk =   0.0219780
        k(   47) = (   0.6166667   0.0866025   0.0000000), wk =   0.0219780
        k(   48) = (   0.6083333   0.1010363   0.0000000), wk =   0.0219780
        k(   49) = (   0.6000000   0.1154701   0.0000000), wk =   0.0219780
        k(   50) = (   0.5916667   0.1299038   0.0000000), wk =   0.0219780
        k(   51) = (   0.5833333   0.1443376   0.0000000), wk =   0.0219780
        k(   52) = (   0.5750000   0.1587713   0.0000000), wk =   0.0219780
        k(   53) = (   0.5666667   0.1732051   0.0000000), wk =   0.0219780
        k(   54) = (   0.5583333   0.1876388   0.0000000), wk =   0.0219780
        k(   55) = (   0.5500000   0.2020726   0.0000000), wk =   0.0219780
        k(   56) = (   0.5416667   0.2165064   0.0000000), wk =   0.0219780
        k(   57) = (   0.5333333   0.2309401   0.0000000), wk =   0.0219780
        k(   58) = (   0.5250000   0.2453739   0.0000000), wk =   0.0219780
        k(   59) = (   0.5166667   0.2598076   0.0000000), wk =   0.0219780
        k(   60) = (   0.5083333   0.2742414   0.0000000), wk =   0.0219780
        k(   61) = (   0.5000000   0.2886751   0.0000000), wk =   0.0219780
        k(   62) = (   0.4833333   0.2790526   0.0000000), wk =   0.0219780
        k(   63) = (   0.4666667   0.2694301   0.0000000), wk =   0.0219780
        k(   64) = (   0.4500000   0.2598076   0.0000000), wk =   0.0219780
        k(   65) = (   0.4333333   0.2501851   0.0000000), wk =   0.0219780
        k(   66) = (   0.4166667   0.2405626   0.0000000), wk =   0.0219780
        k(   67) = (   0.4000000   0.2309401   0.0000000), wk =   0.0219780
        k(   68) = (   0.3833333   0.2213176   0.0000000), wk =   0.0219780
        k(   69) = (   0.3666667   0.2116951   0.0000000), wk =   0.0219780
        k(   70) = (   0.3500000   0.2020726   0.0000000), wk =   0.0219780
        k(   71) = (   0.3333333   0.1924501   0.0000000), wk =   0.0219780
        k(   72) = (   0.3166667   0.1828276   0.0000000), wk =   0.0219780
        k(   73) = (   0.3000000   0.1732051   0.0000000), wk =   0.0219780
        k(   74) = (   0.2833333   0.1635826   0.0000000), wk =   0.0219780
        k(   75) = (   0.2666667   0.1539601   0.0000000), wk =   0.0219780
        k(   76) = (   0.2500000   0.1443376   0.0000000), wk =   0.0219780
        k(   77) = (   0.2333333   0.1347151   0.0000000), wk =   0.0219780
        k(   78) = (   0.2166667   0.1250926   0.0000000), wk =   0.0219780
        k(   79) = (   0.2000000   0.1154701   0.0000000), wk =   0.0219780
        k(   80) = (   0.1833333   0.1058475   0.0000000), wk =   0.0219780
        k(   81) = (   0.1666667   0.0962250   0.0000000), wk =   0.0219780
        k(   82) = (   0.1500000   0.0866025   0.0000000), wk =   0.0219780
        k(   83) = (   0.1333333   0.0769800   0.0000000), wk =   0.0219780
        k(   84) = (   0.1166667   0.0673575   0.0000000), wk =   0.0219780
        k(   85) = (   0.1000000   0.0577350   0.0000000), wk =   0.0219780
        k(   86) = (   0.0833333   0.0481125   0.0000000), wk =   0.0219780
        k(   87) = (   0.0666667   0.0384900   0.0000000), wk =   0.0219780
        k(   88) = (   0.0500000   0.0288675   0.0000000), wk =   0.0219780
        k(   89) = (   0.0333333   0.0192450   0.0000000), wk =   0.0219780
        k(   90) = (   0.0166667   0.0096225   0.0000000), wk =   0.0219780
        k(   91) = (   0.0000000   0.0000000   0.0000000), wk =   0.0219780

                       cryst. coord.
        k(    1) = (   0.0000000   0.0000000   0.0000000), wk =   0.0219780
        k(    2) = (   0.0166667  -0.0083333   0.0000000), wk =   0.0219780
        k(    3) = (   0.0333333  -0.0166667   0.0000000), wk =   0.0219780
        k(    4) = (   0.0500000  -0.0250000   0.0000000), wk =   0.0219780
        k(    5) = (   0.0666667  -0.0333333   0.0000000), wk =   0.0219780
        k(    6) = (   0.0833333  -0.0416667   0.0000000), wk =   0.0219780
        k(    7) = (   0.1000000  -0.0500000   0.0000000), wk =   0.0219780
        k(    8) = (   0.1166667  -0.0583333   0.0000000), wk =   0.0219780
        k(    9) = (   0.1333333  -0.0666667   0.0000000), wk =   0.0219780
        k(   10) = (   0.1500000  -0.0750000   0.0000000), wk =   0.0219780
        k(   11) = (   0.1666667  -0.0833333   0.0000000), wk =   0.0219780
        k(   12) = (   0.1833333  -0.0916667   0.0000000), wk =   0.0219780
        k(   13) = (   0.2000000  -0.1000000   0.0000000), wk =   0.0219780
        k(   14) = (   0.2166667  -0.1083333   0.0000000), wk =   0.0219780
        k(   15) = (   0.2333333  -0.1166667   0.0000000), wk =   0.0219780
        k(   16) = (   0.2500000  -0.1250000   0.0000000), wk =   0.0219780
        k(   17) = (   0.2666667  -0.1333333   0.0000000), wk =   0.0219780
        k(   18) = (   0.2833333  -0.1416667   0.0000000), wk =   0.0219780
        k(   19) = (   0.3000000  -0.1500000   0.0000000), wk =   0.0219780
        k(   20) = (   0.3166667  -0.1583333   0.0000000), wk =   0.0219780
        k(   21) = (   0.3333333  -0.1666667   0.0000000), wk =   0.0219780
        k(   22) = (   0.3500000  -0.1750000   0.0000000), wk =   0.0219780
        k(   23) = (   0.3666667  -0.1833333   0.0000000), wk =   0.0219780
        k(   24) = (   0.3833333  -0.1916667   0.0000000), wk =   0.0219780
        k(   25) = (   0.4000000  -0.2000000   0.0000000), wk =   0.0219780
        k(   26) = (   0.4166667  -0.2083333   0.0000000), wk =   0.0219780
        k(   27) = (   0.4333333  -0.2166667   0.0000000), wk =   0.0219780
        k(   28) = (   0.4500000  -0.2250000   0.0000000), wk =   0.0219780
        k(   29) = (   0.4666667  -0.2333333   0.0000000), wk =   0.0219780
        k(   30) = (   0.4833333  -0.2416667   0.0000000), wk =   0.0219780
        k(   31) = (   0.5000000  -0.2500000   0.0000000), wk =   0.0219780
        k(   32) = (   0.5166667  -0.2583333   0.0000000), wk =   0.0219780
        k(   33) = (   0.5333333  -0.2666667   0.0000000), wk =   0.0219780
        k(   34) = (   0.5500000  -0.2750000   0.0000000), wk =   0.0219780
        k(   35) = (   0.5666667  -0.2833333   0.0000000), wk =   0.0219780
        k(   36) = (   0.5833333  -0.2916667   0.0000000), wk =   0.0219780
        k(   37) = (   0.6000000  -0.3000000   0.0000000), wk =   0.0219780
        k(   38) = (   0.6166667  -0.3083333   0.0000000), wk =   0.0219780
        k(   39) = (   0.6333333  -0.3166667   0.0000000), wk =   0.0219780
        k(   40) = (   0.6500000  -0.3250000   0.0000000), wk =   0.0219780
        k(   41) = (   0.6666667  -0.3333333   0.0000000), wk =   0.0219780
        k(   42) = (   0.6583333  -0.3166667   0.0000000), wk =   0.0219780
        k(   43) = (   0.6500000  -0.3000000   0.0000000), wk =   0.0219780
        k(   44) = (   0.6416667  -0.2833333   0.0000000), wk =   0.0219780
        k(   45) = (   0.6333333  -0.2666667   0.0000000), wk =   0.0219780
        k(   46) = (   0.6250000  -0.2500000   0.0000000), wk =   0.0219780
        k(   47) = (   0.6166667  -0.2333333   0.0000000), wk =   0.0219780
        k(   48) = (   0.6083333  -0.2166667   0.0000000), wk =   0.0219780
        k(   49) = (   0.6000000  -0.2000000   0.0000000), wk =   0.0219780
        k(   50) = (   0.5916667  -0.1833333   0.0000000), wk =   0.0219780
        k(   51) = (   0.5833333  -0.1666667   0.0000000), wk =   0.0219780
        k(   52) = (   0.5750000  -0.1500000   0.0000000), wk =   0.0219780
        k(   53) = (   0.5666667  -0.1333333   0.0000000), wk =   0.0219780
        k(   54) = (   0.5583333  -0.1166667   0.0000000), wk =   0.0219780
        k(   55) = (   0.5500000  -0.1000000   0.0000000), wk =   0.0219780
        k(   56) = (   0.5416667  -0.0833333   0.0000000), wk =   0.0219780
        k(   57) = (   0.5333333  -0.0666667   0.0000000), wk =   0.0219780
        k(   58) = (   0.5250000  -0.0500000   0.0000000), wk =   0.0219780
        k(   59) = (   0.5166667  -0.0333333   0.0000000), wk =   0.0219780
        k(   60) = (   0.5083333  -0.0166667   0.0000000), wk =   0.0219780
        k(   61) = (   0.5000000   0.0000000   0.0000000), wk =   0.0219780
        k(   62) = (   0.4833333  -0.0000000   0.0000000), wk =   0.0219780
        k(   63) = (   0.4666667   0.0000000   0.0000000), wk =   0.0219780
        k(   64) = (   0.4500000   0.0000000   0.0000000), wk =   0.0219780
        k(   65) = (   0.4333333  -0.0000000   0.0000000), wk =   0.0219780
        k(   66) = (   0.4166667   0.0000000   0.0000000), wk =   0.0219780
        k(   67) = (   0.4000000   0.0000000   0.0000000), wk =   0.0219780
        k(   68) = (   0.3833333   0.0000000   0.0000000), wk =   0.0219780
        k(   69) = (   0.3666667   0.0000000   0.0000000), wk =   0.0219780
        k(   70) = (   0.3500000   0.0000000   0.0000000), wk =   0.0219780
        k(   71) = (   0.3333333   0.0000000   0.0000000), wk =   0.0219780
        k(   72) = (   0.3166667   0.0000000   0.0000000), wk =   0.0219780
        k(   73) = (   0.3000000   0.0000000   0.0000000), wk =   0.0219780
        k(   74) = (   0.2833333   0.0000000   0.0000000), wk =   0.0219780
        k(   75) = (   0.2666667   0.0000000   0.0000000), wk =   0.0219780
        k(   76) = (   0.2500000   0.0000000   0.0000000), wk =   0.0219780
        k(   77) = (   0.2333333   0.0000000   0.0000000), wk =   0.0219780
        k(   78) = (   0.2166667  -0.0000000   0.0000000), wk =   0.0219780
        k(   79) = (   0.2000000   0.0000000   0.0000000), wk =   0.0219780
        k(   80) = (   0.1833333   0.0000000   0.0000000), wk =   0.0219780
        k(   81) = (   0.1666667   0.0000000   0.0000000), wk =   0.0219780
        k(   82) = (   0.1500000   0.0000000   0.0000000), wk =   0.0219780
        k(   83) = (   0.1333333   0.0000000   0.0000000), wk =   0.0219780
        k(   84) = (   0.1166667   0.0000000   0.0000000), wk =   0.0219780
        k(   85) = (   0.1000000   0.0000000   0.0000000), wk =   0.0219780
        k(   86) = (   0.0833333   0.0000000   0.0000000), wk =   0.0219780
        k(   87) = (   0.0666667   0.0000000   0.0000000), wk =   0.0219780
        k(   88) = (   0.0500000   0.0000000   0.0000000), wk =   0.0219780
        k(   89) = (   0.0333333   0.0000000   0.0000000), wk =   0.0219780
        k(   90) = (   0.0166667   0.0000000   0.0000000), wk =   0.0219780
        k(   91) = (   0.0000000   0.0000000   0.0000000), wk =   0.0219780

     Dense  grid:   455489 G-vectors     FFT dimensions: (  64,  64, 270)

     Smooth grid:   160939 G-vectors     FFT dimensions: (  45,  45, 192)

     Dynamical RAM for                 wfc:       0.82 MB

     Dynamical RAM for     wfc (w. buffer):       0.82 MB

     Dynamical RAM for           str. fact:       1.16 MB

     Dynamical RAM for           local pot:       0.00 MB

     Dynamical RAM for          nlocal pot:       1.84 MB

     Dynamical RAM for                qrad:       1.76 MB

     Dynamical RAM for          rho,v,vnew:       7.69 MB

     Dynamical RAM for           G-vectors:       4.55 MB

     Dynamical RAM for          h,s,v(r/c):       0.05 MB

     Dynamical RAM for          <psi|beta>:       0.01 MB

     Dynamical RAM for                 psi:       1.64 MB

     Dynamical RAM for                hpsi:       1.64 MB

     Dynamical RAM for                spsi:       1.64 MB

     Dynamical RAM for      wfcinit/wfcrot:       1.85 MB

     Dynamical RAM for           addusdens:     217.76 MB

     Estimated static dynamical RAM per process >      27.17 MB

     Estimated max dynamical RAM per process >     244.93 MB

     Estimated total dynamical RAM >       1.44 GB

     The potential is recalculated from file :
     ../tmp/stanene.save/charge-density


     negative rho (up, down):  8.723E-05 0.000E+00
     Starting wfcs are   18 randomized atomic wfcs

     Band Structure Calculation
     Davidson diagonalization with overlap

     Computing kpt #:     1  of    91
     total cpu time spent up to now is       54.9 secs

     Computing kpt #:     2  of    91
     total cpu time spent up to now is       97.9 secs

     Computing kpt #:     3  of    91
     total cpu time spent up to now is      151.3 secs

     Computing kpt #:     4  of    91
     total cpu time spent up to now is      190.4 secs

     Computing kpt #:     5  of    91
     total cpu time spent up to now is      230.8 secs

     Computing kpt #:     6  of    91
     total cpu time spent up to now is      262.8 secs

     Computing kpt #:     7  of    91
     total cpu time spent up to now is      293.4 secs

     Computing kpt #:     8  of    91
     total cpu time spent up to now is      323.6 secs

     Computing kpt #:     9  of    91
     total cpu time spent up to now is      354.5 secs

     Computing kpt #:    10  of    91
     total cpu time spent up to now is      384.2 secs

     Computing kpt #:    11  of    91
     total cpu time spent up to now is      414.2 secs

     Computing kpt #:    12  of    91
     total cpu time spent up to now is      443.4 secs

     Computing kpt #:    13  of    91
     total cpu time spent up to now is      477.7 secs

     Computing kpt #:    14  of    91
     total cpu time spent up to now is      511.5 secs

     Computing kpt #:    15  of    91
     total cpu time spent up to now is      546.6 secs

     Computing kpt #:    16  of    91
     total cpu time spent up to now is      585.3 secs

     Computing kpt #:    17  of    91
     total cpu time spent up to now is      626.8 secs

     Computing kpt #:    18  of    91
     total cpu time spent up to now is      663.7 secs

     Computing kpt #:    19  of    91
     total cpu time spent up to now is      704.5 secs

     Computing kpt #:    20  of    91
     total cpu time spent up to now is      738.9 secs

     Computing kpt #:    21  of    91
     total cpu time spent up to now is      769.0 secs

     Computing kpt #:    22  of    91
     total cpu time spent up to now is      799.9 secs

     Computing kpt #:    23  of    91
     total cpu time spent up to now is      829.2 secs

     Computing kpt #:    24  of    91
     total cpu time spent up to now is      857.2 secs

     Computing kpt #:    25  of    91
     total cpu time spent up to now is      884.4 secs

     Computing kpt #:    26  of    91
     total cpu time spent up to now is      912.4 secs

     Computing kpt #:    27  of    91
     total cpu time spent up to now is      939.2 secs

     Computing kpt #:    28  of    91
     total cpu time spent up to now is      961.1 secs

     Computing kpt #:    29  of    91
     total cpu time spent up to now is      982.5 secs

     Computing kpt #:    30  of    91
     total cpu time spent up to now is     1002.0 secs

     Computing kpt #:    31  of    91
     total cpu time spent up to now is     1040.9 secs

     Computing kpt #:    32  of    91
     total cpu time spent up to now is     1063.9 secs

     Computing kpt #:    33  of    91
     total cpu time spent up to now is     1085.5 secs

     Computing kpt #:    34  of    91
     total cpu time spent up to now is     1107.9 secs

     Computing kpt #:    35  of    91
     total cpu time spent up to now is     1144.9 secs

     Computing kpt #:    36  of    91
     total cpu time spent up to now is     1171.4 secs

     Computing kpt #:    37  of    91
     total cpu time spent up to now is     1201.4 secs

     Computing kpt #:    38  of    91
     total cpu time spent up to now is     1231.4 secs

     Computing kpt #:    39  of    91
     total cpu time spent up to now is     1266.6 secs

     Computing kpt #:    40  of    91
     total cpu time spent up to now is     1300.0 secs

     Computing kpt #:    41  of    91
     total cpu time spent up to now is     1330.2 secs

     Computing kpt #:    42  of    91
     total cpu time spent up to now is     1362.4 secs

     Computing kpt #:    43  of    91
     total cpu time spent up to now is     1398.5 secs

     Computing kpt #:    44  of    91
     total cpu time spent up to now is     1429.1 secs

     Computing kpt #:    45  of    91
     total cpu time spent up to now is     1459.8 secs

     Computing kpt #:    46  of    91
     total cpu time spent up to now is     1492.0 secs

     Computing kpt #:    47  of    91
     total cpu time spent up to now is     1524.1 secs

     Computing kpt #:    48  of    91
     total cpu time spent up to now is     1550.5 secs

     Computing kpt #:    49  of    91
     total cpu time spent up to now is     1575.8 secs

     Computing kpt #:    50  of    91
     total cpu time spent up to now is     1599.5 secs

     Computing kpt #:    51  of    91
     total cpu time spent up to now is     1624.4 secs

     Computing kpt #:    52  of    91
     total cpu time spent up to now is     1647.6 secs

     Computing kpt #:    53  of    91
     total cpu time spent up to now is     1673.8 secs

     Computing kpt #:    54  of    91
     total cpu time spent up to now is     1700.0 secs

     Computing kpt #:    55  of    91
     total cpu time spent up to now is     1726.2 secs

     Computing kpt #:    56  of    91
     total cpu time spent up to now is     1750.3 secs

     Computing kpt #:    57  of    91
     total cpu time spent up to now is     1773.4 secs

     Computing kpt #:    58  of    91
     total cpu time spent up to now is     1797.4 secs

     Computing kpt #:    59  of    91
     total cpu time spent up to now is     1825.2 secs

     Computing kpt #:    60  of    91
     total cpu time spent up to now is     1846.7 secs

     Computing kpt #:    61  of    91
     total cpu time spent up to now is     1864.1 secs

     Computing kpt #:    62  of    91
     total cpu time spent up to now is     1881.0 secs

     Computing kpt #:    63  of    91
     total cpu time spent up to now is     1897.6 secs

     Computing kpt #:    64  of    91
     total cpu time spent up to now is     1917.5 secs

     Computing kpt #:    65  of    91
     total cpu time spent up to now is     1936.4 secs

     Computing kpt #:    66  of    91
     total cpu time spent up to now is     1952.8 secs

     Computing kpt #:    67  of    91
     total cpu time spent up to now is     1973.3 secs

     Computing kpt #:    68  of    91
     total cpu time spent up to now is     1995.0 secs

     Computing kpt #:    69  of    91
     total cpu time spent up to now is     2013.6 secs

     Computing kpt #:    70  of    91
     total cpu time spent up to now is     2035.8 secs

     Computing kpt #:    71  of    91
     total cpu time spent up to now is     2058.6 secs

     Computing kpt #:    72  of    91
     total cpu time spent up to now is     2077.2 secs

     Computing kpt #:    73  of    91
     total cpu time spent up to now is     2097.8 secs

     Computing kpt #:    74  of    91
     total cpu time spent up to now is     2120.6 secs

     Computing kpt #:    75  of    91
     total cpu time spent up to now is     2142.5 secs

     Computing kpt #:    76  of    91
     total cpu time spent up to now is     2167.7 secs

     Computing kpt #:    77  of    91
     total cpu time spent up to now is     2194.0 secs

     Computing kpt #:    78  of    91
     total cpu time spent up to now is     2229.1 secs

     Computing kpt #:    79  of    91
     total cpu time spent up to now is     2258.4 secs

     Computing kpt #:    80  of    91
     total cpu time spent up to now is     2295.2 secs

     Computing kpt #:    81  of    91
     total cpu time spent up to now is     2332.3 secs

     Computing kpt #:    82  of    91
     total cpu time spent up to now is     2368.4 secs

     Computing kpt #:    83  of    91
     total cpu time spent up to now is     2402.9 secs

     Computing kpt #:    84  of    91
     total cpu time spent up to now is     2443.3 secs

     Computing kpt #:    85  of    91
     total cpu time spent up to now is     2486.3 secs

     Computing kpt #:    86  of    91
     total cpu time spent up to now is     2530.3 secs

     Computing kpt #:    87  of    91
     total cpu time spent up to now is     2577.9 secs

     Computing kpt #:    88  of    91
     total cpu time spent up to now is     2627.4 secs

     Computing kpt #:    89  of    91
     total cpu time spent up to now is     2688.6 secs

     Computing kpt #:    90  of    91
     total cpu time spent up to now is     2764.4 secs

     Computing kpt #:    91  of    91
     total cpu time spent up to now is     2791.5 secs

     ethr =  3.57E-10,  avg # of iterations = 24.1

     total cpu time spent up to now is     2791.5 secs

     End of band structure calculation

          k = 0.0000 0.0000 0.0000 ( 20025 PWs)   bands (ev):

   -24.1124 -24.0957 -24.0957 -23.9951 -23.9951 -23.8338 -23.8338 -23.7645
   -23.7645 -23.7071 -12.2054  -4.2913  -3.6988  -3.3505  -3.3505   0.6665

          k = 0.0167 0.0000 0.0000 ( 20053 PWs)   bands (ev):

   -24.1125 -24.0963 -24.0961 -23.9951 -23.9950 -23.8333 -23.8332 -23.7646
   -23.7644 -23.7071 -12.2036  -4.2895  -3.7916  -3.3547  -3.2599   0.6639

          k = 0.0333 0.0000 0.0000 ( 20039 PWs)   bands (ev):

   -24.1128 -24.0979 -24.0974 -23.9953 -23.9948 -23.8317 -23.8313 -23.7649
   -23.7643 -23.7070 -12.1983  -4.2839  -3.9660  -3.3669  -3.0918   0.6566

          k = 0.0500 0.0000 0.0000 ( 20033 PWs)   bands (ev):

   -24.1135 -24.1003 -24.0994 -23.9955 -23.9943 -23.8292 -23.8283 -23.7653
   -23.7641 -23.7069 -12.1894  -4.2747  -4.1586  -3.3873  -2.9100   0.6455

          k = 0.0667 0.0000 0.0000 ( 20023 PWs)   bands (ev):

   -24.1150 -24.1031 -24.1021 -23.9958 -23.9938 -23.8259 -23.8243 -23.7660
   -23.7638 -23.7068 -12.1770  -4.3568  -4.2619  -3.4156  -2.7274   0.6322

          k = 0.0833 0.0000 0.0000 ( 20017 PWs)   bands (ev):

   -24.1179 -24.1054 -24.1054 -23.9962 -23.9930 -23.8217 -23.8193 -23.7668
   -23.7634 -23.7065 -12.1610  -4.5570  -4.2453  -3.4516  -2.5479   0.6179

          k = 0.1000 0.0000 0.0000 ( 20001 PWs)   bands (ev):

   -24.1227 -24.1091 -24.1068 -23.9967 -23.9921 -23.8170 -23.8135 -23.7679
   -23.7629 -23.7062 -12.1415  -4.7575  -4.2252  -3.4950  -2.3733   0.6043

          k = 0.1167 0.0000 0.0000 ( 20029 PWs)   bands (ev):

   -24.1289 -24.1133 -24.1075 -23.9973 -23.9911 -23.8117 -23.8070 -23.7691
   -23.7623 -23.7058 -12.1185  -4.9574  -4.2014  -3.5454  -2.2050   0.5924

          k = 0.1333 0.0000 0.0000 ( 20035 PWs)   bands (ev):

   -24.1361 -24.1178 -24.1078 -23.9980 -23.9899 -23.8061 -23.8000 -23.7705
   -23.7616 -23.7052 -12.0920  -5.1562  -4.1740  -3.6025  -2.0435   0.5835

          k = 0.1500 0.0000 0.0000 ( 20063 PWs)   bands (ev):

   -24.1441 -24.1224 -24.1079 -23.9987 -23.9885 -23.8002 -23.7927 -23.7720
   -23.7609 -23.7043 -12.0619  -5.3534  -4.1431  -3.6658  -1.8894   0.5783

          k = 0.1667 0.0000 0.0000 ( 20061 PWs)   bands (ev):

   -24.1526 -24.1271 -24.1080 -23.9995 -23.9869 -23.7941 -23.7852 -23.7738
   -23.7601 -23.7032 -12.0284  -5.5486  -4.1086  -3.7348  -1.7427   0.5775

          k = 0.1833 0.0000 0.0000 ( 20065 PWs)   bands (ev):

   -24.1615 -24.1319 -24.1079 -24.0004 -23.9852 -23.7879 -23.7778 -23.7757
   -23.7592 -23.7017 -11.9915  -5.7416  -4.0706  -3.8089  -1.6033   0.5817

          k = 0.2000 0.0000 0.0000 ( 20079 PWs)   bands (ev):

   -24.1707 -24.1366 -24.1078 -24.0013 -23.9834 -23.7817 -23.7777 -23.7706
   -23.7583 -23.6996 -11.9511  -5.9320  -4.0292  -3.8875  -1.4707   0.5912

          k = 0.2167 0.0000 0.0000 ( 20085 PWs)   bands (ev):

   -24.1800 -24.1411 -24.1077 -24.0023 -23.9814 -23.7800 -23.7756 -23.7638
   -23.7573 -23.6969 -11.9073  -6.1197  -3.9844  -3.9701  -1.3443   0.6062

          k = 0.2333 0.0000 0.0000 ( 20083 PWs)   bands (ev):

   -24.1895 -24.1455 -24.1076 -24.0034 -23.9792 -23.7824 -23.7696 -23.7578
   -23.7563 -23.6933 -11.8601  -6.3045  -4.0561  -3.9362  -1.2233   0.6270

          k = 0.2500 0.0000 0.0000 ( 20099 PWs)   bands (ev):

   -24.1990 -24.1496 -24.1075 -24.0045 -23.9769 -23.7850 -23.7638 -23.7552
   -23.7526 -23.6888 -11.8096  -6.4862  -4.1448  -3.8847  -1.1069   0.6534

          k = 0.2667 0.0000 0.0000 ( 20111 PWs)   bands (ev):

   -24.2084 -24.1535 -24.1075 -24.0056 -23.9744 -23.7877 -23.7582 -23.7541
   -23.7484 -23.6834 -11.7558  -6.6647  -4.2357  -3.8300  -0.9943   0.6855

          k = 0.2833 0.0000 0.0000 ( 20127 PWs)   bands (ev):

   -24.2178 -24.1571 -24.1074 -24.0068 -23.9718 -23.7905 -23.7530 -23.7529
   -23.7450 -23.6772 -11.6988  -6.8399  -4.3282  -3.7722  -0.8847   0.6800

          k = 0.3000 0.0000 0.0000 ( 20141 PWs)   bands (ev):

   -24.2270 -24.1604 -24.1074 -24.0080 -23.9691 -23.7935 -23.7518 -23.7479
   -23.7424 -23.6702 -11.6386  -7.0116  -4.4217  -3.7113  -0.7771   0.5438

          k = 0.3167 0.0000 0.0000 ( 20119 PWs)   bands (ev):

   -24.2361 -24.1633 -24.1075 -24.0092 -23.9662 -23.7967 -23.7506 -23.7432
   -23.7405 -23.6627 -11.5753  -7.1798  -4.5158  -3.6474  -0.6711   0.4082

          k = 0.3333 0.0000 0.0000 ( 20113 PWs)   bands (ev):

   -24.2450 -24.1658 -24.1076 -24.0104 -23.9632 -23.7999 -23.7495 -23.7392
   -23.7389 -23.6549 -11.5089  -7.3444  -4.6098  -3.5806  -0.5658   0.2736

          k = 0.3500 0.0000 0.0000 ( 20101 PWs)   bands (ev):

   -24.2536 -24.1680 -24.1079 -24.0117 -23.9600 -23.8033 -23.7483 -23.7382
   -23.7349 -23.6470 -11.4396  -7.5053  -4.7034  -3.5110  -0.4607   0.1402

          k = 0.3667 0.0000 0.0000 ( 20107 PWs)   bands (ev):

   -24.2619 -24.1698 -24.1082 -24.0129 -23.9567 -23.8068 -23.7471 -23.7374
   -23.7313 -23.6390 -11.3675  -7.6624  -4.7961  -3.4387  -0.3554   0.0084

          k = 0.3833 0.0000 0.0000 ( 20125 PWs)   bands (ev):

   -24.2699 -24.1712 -24.1085 -24.0141 -23.9533 -23.8104 -23.7459 -23.7369
   -23.7281 -23.6310 -11.2926  -7.8157  -4.8874  -3.3640  -0.2494  -0.1217

          k = 0.4000 0.0000 0.0000 ( 20121 PWs)   bands (ev):

   -24.2776 -24.1721 -24.1090 -24.0153 -23.9498 -23.8142 -23.7447 -23.7366
   -23.7253 -23.6233 -11.2150  -7.9652  -4.9769  -3.2868  -0.2498  -0.1423

          k = 0.4167 0.0000 0.0000 ( 20119 PWs)   bands (ev):

   -24.2849 -24.1727 -24.1097 -24.0165 -23.9461 -23.8180 -23.7436 -23.7363
   -23.7228 -23.6158 -11.1350  -8.1107  -5.0641  -3.2074  -0.3757  -0.0338

          k = 0.4333 0.0000 0.0000 ( 20121 PWs)   bands (ev):

   -24.2918 -24.1729 -24.1104 -24.0177 -23.9424 -23.8219 -23.7425 -23.7361
   -23.7208 -23.6085 -11.0526  -8.2523  -5.1488  -3.1259  -0.4993   0.0763

          k = 0.4500 0.0000 0.0000 ( 20137 PWs)   bands (ev):

   -24.2983 -24.1727 -24.1113 -24.0188 -23.9385 -23.8260 -23.7415 -23.7359
   -23.7192 -23.6017 -10.9681  -8.3898  -5.2304  -3.0426  -0.6203   0.1884

          k = 0.4667 0.0000 0.0000 ( 20129 PWs)   bands (ev):

   -24.3044 -24.1721 -24.1123 -24.0198 -23.9345 -23.8301 -23.7405 -23.7357
   -23.7179 -23.5952 -10.8817  -8.5234  -5.3086  -2.9576  -0.7388   0.3026

          k = 0.4833 0.0000 0.0000 ( 20145 PWs)   bands (ev):

   -24.3101 -24.1711 -24.1136 -24.0208 -23.9305 -23.8342 -23.7395 -23.7355
   -23.7170 -23.5891 -10.7936  -8.6529  -5.3831  -2.8712  -0.8544   0.4190

          k = 0.5000 0.0000 0.0000 ( 20149 PWs)   bands (ev):

   -24.3153 -24.1697 -24.1149 -24.0218 -23.9264 -23.8385 -23.7386 -23.7352
   -23.7164 -23.5835 -10.7039  -8.7783  -5.4533  -2.7836  -0.9672   0.5378

          k = 0.5167 0.0000 0.0000 ( 20159 PWs)   bands (ev):

   -24.3200 -24.1681 -24.1165 -24.0227 -23.9222 -23.8428 -23.7378 -23.7349
   -23.7162 -23.5784 -10.6131  -8.8996  -5.5190  -2.6952  -1.0771   0.6592

          k = 0.5333 0.0000 0.0000 ( 20151 PWs)   bands (ev):

   -24.3242 -24.1660 -24.1183 -24.0235 -23.9179 -23.8471 -23.7370 -23.7345
   -23.7163 -23.5737 -10.5214  -9.0168  -5.5796  -2.6061  -1.1838   0.7832

          k = 0.5500 0.0000 0.0000 ( 20149 PWs)   bands (ev):

   -24.3280 -24.1637 -24.1203 -24.0242 -23.9136 -23.8515 -23.7363 -23.7339
   -23.7166 -23.5696 -10.4292  -9.1299  -5.6348  -2.5168  -1.2874   0.9098

          k = 0.5667 0.0000 0.0000 ( 20149 PWs)   bands (ev):

   -24.3313 -24.1611 -24.1225 -24.0249 -23.9093 -23.8559 -23.7357 -23.7333
   -23.7173 -23.5660 -10.3369  -9.2388  -5.6842  -2.4277  -1.3878   1.0393

          k = 0.5833 0.0000 0.0000 ( 20137 PWs)   bands (ev):

   -24.3340 -24.1582 -24.1249 -24.0254 -23.9049 -23.8604 -23.7352 -23.7325
   -23.7182 -23.5630 -10.2448  -9.3436  -5.7272  -2.3390  -1.4849   1.1715

          k = 0.6000 0.0000 0.0000 ( 20127 PWs)   bands (ev):

   -24.3363 -24.1551 -24.1276 -24.0259 -23.9004 -23.8648 -23.7348 -23.7315
   -23.7194 -23.5605 -10.1535  -9.4442  -5.7635  -2.2513  -1.5786   1.3065

          k = 0.6167 0.0000 0.0000 ( 20141 PWs)   bands (ev):

   -24.3380 -24.1518 -24.1305 -24.0262 -23.8960 -23.8693 -23.7344 -23.7304
   -23.7207 -23.5586 -10.0633  -9.5407  -5.7925  -2.1650  -1.6689   1.4443

          k = 0.6333 0.0000 0.0000 ( 20139 PWs)   bands (ev):

   -24.3393 -24.1483 -24.1337 -24.0265 -23.8915 -23.8738 -23.7342 -23.7290
   -23.7223 -23.5572  -9.9748  -9.6330  -5.8137  -2.0805  -1.7558   1.5850

          k = 0.6500 0.0000 0.0000 ( 20133 PWs)   bands (ev):

   -24.3400 -24.1446 -24.1371 -24.0266 -23.8871 -23.8782 -23.7340 -23.7275
   -23.7239 -23.5564  -9.8886  -9.7212  -5.8268  -1.9982  -1.8391   1.7283

          k = 0.6667 0.0000 0.0000 ( 20133 PWs)   bands (ev):

   -24.3403 -24.1408 -24.1408 -24.0267 -23.8827 -23.8827 -23.7340 -23.7258
   -23.7258 -23.5561  -9.8052  -9.8052  -5.8313  -1.9188  -1.9188   1.8743

          k = 0.6583 0.0144 0.0000 ( 20121 PWs)   bands (ev):

   -24.3400 -24.1448 -24.1369 -24.0266 -23.8871 -23.8783 -23.7340 -23.7277
   -23.7238 -23.5564  -9.8850  -9.7250  -5.8267  -1.9949  -1.8426   1.7073

          k = 0.6500 0.0289 0.0000 ( 20129 PWs)   bands (ev):

   -24.3393 -24.1490 -24.1330 -24.0265 -23.8914 -23.8739 -23.7342 -23.7296
   -23.7216 -23.5572  -9.9607  -9.6486  -5.8127  -2.0673  -1.7700   1.5087

          k = 0.6417 0.0433 0.0000 ( 20131 PWs)   bands (ev):

   -24.3381 -24.1535 -24.1291 -24.0262 -23.8957 -23.8696 -23.7344 -23.7316
   -23.7191 -23.5585 -10.0322  -9.5764  -5.7891  -2.1360  -1.7014   1.2897

          k = 0.6333 0.0577 0.0000 ( 20139 PWs)   bands (ev):

   -24.3364 -24.1583 -24.1251 -24.0259 -23.8999 -23.8654 -23.7348 -23.7337
   -23.7164 -23.5603 -10.0996  -9.5088  -5.7558  -2.2010  -1.6373   1.0584

          k = 0.6250 0.0722 0.0000 ( 20123 PWs)   bands (ev):

   -24.3343 -24.1633 -24.1212 -24.0254 -23.9041 -23.8612 -23.7357 -23.7352
   -23.7134 -23.5626 -10.1628  -9.4461  -5.7126  -2.2622  -1.5777   0.8205

          k = 0.6167 0.0866 0.0000 ( 20131 PWs)   bands (ev):

   -24.3317 -24.1686 -24.1174 -24.0249 -23.9081 -23.8572 -23.7377 -23.7357
   -23.7101 -23.5654 -10.2220  -9.3886  -5.6598  -2.3196  -1.5230   0.5801

          k = 0.6083 0.1010 0.0000 ( 20139 PWs)   bands (ev):

   -24.3286 -24.1741 -24.1137 -24.0242 -23.9120 -23.8532 -23.7396 -23.7363
   -23.7066 -23.5686 -10.2770  -9.3362  -5.5978  -2.3731  -1.4732   0.3400

          k = 0.6000 0.1155 0.0000 ( 20161 PWs)   bands (ev):

   -24.3252 -24.1798 -24.1101 -24.0235 -23.9158 -23.8495 -23.7415 -23.7369
   -23.7028 -23.5722 -10.3278  -9.2892  -5.5270  -2.4228  -1.4282   0.1026

          k = 0.5917 0.1299 0.0000 ( 20163 PWs)   bands (ev):

   -24.3214 -24.1858 -24.1067 -24.0227 -23.9194 -23.8458 -23.7433 -23.7376
   -23.6987 -23.5762 -10.3746  -9.2473  -5.4483  -2.4686  -1.3881  -0.1304

          k = 0.5833 0.1443 0.0000 ( 20135 PWs)   bands (ev):

   -24.3172 -24.1919 -24.1035 -24.0219 -23.9229 -23.8424 -23.7450 -23.7384
   -23.6943 -23.5806 -10.4173  -9.2104  -5.3628  -2.5105  -1.3527  -0.3571

          k = 0.5750 0.1588 0.0000 ( 20127 PWs)   bands (ev):

   -24.3126 -24.1983 -24.1006 -24.0211 -23.9261 -23.8392 -23.7466 -23.7392
   -23.6897 -23.5853 -10.4559  -9.1783  -5.2718  -2.5485  -1.3217  -0.5758

          k = 0.5667 0.1732 0.0000 ( 20141 PWs)   bands (ev):

   -24.3077 -24.2047 -24.0978 -24.0202 -23.9292 -23.8362 -23.7480 -23.7400
   -23.6849 -23.5902 -10.4904  -9.1507  -5.1770  -2.5825  -1.2950  -0.7845

          k = 0.5583 0.1876 0.0000 ( 20151 PWs)   bands (ev):

   -24.3025 -24.2113 -24.0954 -24.0193 -23.9320 -23.8334 -23.7493 -23.7407
   -23.6798 -23.5955 -10.5208  -9.1273  -5.0805  -2.6126  -1.2723  -0.9812

          k = 0.5500 0.2021 0.0000 ( 20163 PWs)   bands (ev):

   -24.2970 -24.2180 -24.0932 -24.0185 -23.9345 -23.8309 -23.7504 -23.7415
   -23.6746 -23.6009 -10.5472  -9.1078  -4.9850  -2.6387  -1.2532  -1.1633

          k = 0.5417 0.2165 0.0000 ( 20154 PWs)   bands (ev):

   -24.2912 -24.2248 -24.0914 -24.0178 -23.9367 -23.8288 -23.7514 -23.7421
   -23.6692 -23.6064 -10.5695  -9.0918  -4.8935  -2.6607  -1.3278  -1.2376

          k = 0.5333 0.2309 0.0000 ( 20166 PWs)   bands (ev):

   -24.2852 -24.2316 -24.0898 -24.0171 -23.9385 -23.8270 -23.7522 -23.7428
   -23.6637 -23.6121 -10.5877  -9.0792  -4.8098  -2.6788  -1.4711  -1.2252

          k = 0.5250 0.2454 0.0000 ( 20148 PWs)   bands (ev):

   -24.2790 -24.2385 -24.0886 -24.0165 -23.9400 -23.8255 -23.7529 -23.7432
   -23.6582 -23.6177 -10.6019  -9.0696  -4.7379  -2.6929  -1.5890  -1.2158

          k = 0.5167 0.2598 0.0000 ( 20148 PWs)   bands (ev):

   -24.2727 -24.2452 -24.0877 -24.0161 -23.9411 -23.8245 -23.7533 -23.7436
   -23.6530 -23.6230 -10.6120  -9.0629  -4.6823  -2.7030  -1.6775  -1.2092

          k = 0.5083 0.2742 0.0000 ( 20132 PWs)   bands (ev):

   -24.2665 -24.2518 -24.0872 -24.0158 -23.9417 -23.8239 -23.7536 -23.7438
   -23.6486 -23.6275 -10.6181  -9.0590  -4.6470  -2.7090  -1.7325  -1.2053

          k = 0.5000 0.2887 0.0000 ( 20152 PWs)   bands (ev):

   -24.2621 -24.2562 -24.0870 -24.0158 -23.9419 -23.8236 -23.7537 -23.7439
   -23.6466 -23.6295 -10.6201  -9.0577  -4.6349  -2.7110  -1.7512  -1.2040

          k = 0.4833 0.2791 0.0000 ( 20140 PWs)   bands (ev):

   -24.2618 -24.2559 -24.0871 -24.0157 -23.9421 -23.8234 -23.7537 -23.7440
   -23.6470 -23.6298 -10.6321  -9.0408  -4.6323  -2.7224  -1.7494  -1.1889

          k = 0.4667 0.2694 0.0000 ( 20146 PWs)   bands (ev):

   -24.2608 -24.2550 -24.0873 -24.0155 -23.9428 -23.8227 -23.7536 -23.7441
   -23.6481 -23.6307 -10.6668  -8.9919  -4.6248  -2.7554  -1.7443  -1.1451

          k = 0.4500 0.2598 0.0000 ( 20144 PWs)   bands (ev):

   -24.2592 -24.2535 -24.0876 -24.0153 -23.9438 -23.8216 -23.7536 -23.7444
   -23.6500 -23.6323 -10.7201  -8.9146  -4.6123  -2.8064  -1.7358  -1.0759

          k = 0.4333 0.2502 0.0000 ( 20169 PWs)   bands (ev):

   -24.2570 -24.2514 -24.0880 -24.0149 -23.9453 -23.8201 -23.7535 -23.7448
   -23.6527 -23.6345 -10.7876  -8.8137  -4.5948  -2.8711  -1.7241  -0.9859

          k = 0.4167 0.2406 0.0000 ( 20157 PWs)   bands (ev):

   -24.2542 -24.2486 -24.0885 -24.0145 -23.9470 -23.8182 -23.7534 -23.7452
   -23.6560 -23.6373 -10.8646  -8.6938  -4.5724  -2.9455  -1.7093  -0.8791

          k = 0.4000 0.2309 0.0000 ( 20153 PWs)   bands (ev):

   -24.2508 -24.2453 -24.0892 -24.0139 -23.9490 -23.8160 -23.7533 -23.7458
   -23.6601 -23.6406 -10.9476  -8.5584  -4.5452  -3.0261  -1.6916  -0.7591

          k = 0.3833 0.2213 0.0000 ( 20169 PWs)   bands (ev):

   -24.2467 -24.2414 -24.0899 -24.0133 -23.9513 -23.8135 -23.7533 -23.7464
   -23.6648 -23.6445 -11.0339  -8.4104  -4.5133  -3.1103  -1.6715  -0.6286

          k = 0.3667 0.2117 0.0000 ( 20153 PWs)   bands (ev):

   -24.2421 -24.2370 -24.0907 -24.0126 -23.9538 -23.8108 -23.7534 -23.7471
   -23.6703 -23.6488 -11.1213  -8.2519  -4.4768  -3.1961  -1.6493  -0.4899

          k = 0.3500 0.2021 0.0000 ( 20151 PWs)   bands (ev):

   -24.2370 -24.2320 -24.0916 -24.0118 -23.9564 -23.8080 -23.7536 -23.7479
   -23.6763 -23.6535 -11.2085  -8.0844  -4.4359  -3.2820  -1.6256  -0.3445

          k = 0.3333 0.1925 0.0000 ( 20145 PWs)   bands (ev):

   -24.2313 -24.2266 -24.0926 -24.0109 -23.9591 -23.8050 -23.7540 -23.7488
   -23.6830 -23.6585 -11.2943  -7.9091  -4.3908  -3.3669  -1.6011  -0.1937

          k = 0.3167 0.1828 0.0000 ( 20137 PWs)   bands (ev):

   -24.2252 -24.2206 -24.0936 -24.0100 -23.9618 -23.8020 -23.7547 -23.7497
   -23.6902 -23.6638 -11.3779  -7.7269  -4.3417  -3.4501  -1.5766  -0.0388

          k = 0.3000 0.1732 0.0000 ( 20131 PWs)   bands (ev):

   -24.2186 -24.2141 -24.0946 -24.0090 -23.9646 -23.7989 -23.7557 -23.7507
   -23.6980 -23.6692 -11.4588  -7.5385  -4.2889  -3.5308  -1.5534   0.1195

          k = 0.2833 0.1636 0.0000 ( 20117 PWs)   bands (ev):

   -24.2115 -24.2073 -24.0957 -24.0080 -23.9674 -23.7958 -23.7571 -23.7517
   -23.7062 -23.6746 -11.5365  -7.3444  -4.2325  -3.6087  -1.5329   0.2802

          k = 0.2667 0.1540 0.0000 ( 20103 PWs)   bands (ev):

   -24.2041 -24.2000 -24.0968 -24.0069 -23.9701 -23.7927 -23.7590 -23.7527
   -23.7148 -23.6798 -11.6106  -7.1452  -4.1731  -3.6833  -1.5170   0.4426

          k = 0.2500 0.1443 0.0000 ( 20087 PWs)   bands (ev):

   -24.1964 -24.1924 -24.0978 -24.0058 -23.9728 -23.7898 -23.7616 -23.7538
   -23.7238 -23.6848 -11.6809  -6.9411  -4.1109  -3.7543  -1.5081   0.6059

          k = 0.2333 0.1347 0.0000 ( 20093 PWs)   bands (ev):

   -24.1884 -24.1845 -24.0989 -24.0048 -23.9754 -23.7868 -23.7650 -23.7549
   -23.7331 -23.6893 -11.7473  -6.7327  -4.0464  -3.8215  -1.5091   0.7691

          k = 0.2167 0.1251 0.0000 ( 20073 PWs)   bands (ev):

   -24.1802 -24.1763 -24.0999 -24.0037 -23.9779 -23.7840 -23.7691 -23.7559
   -23.7426 -23.6932 -11.8095  -6.5202  -3.9801  -3.8846  -1.5235   0.9316

          k = 0.2000 0.1155 0.0000 ( 20069 PWs)   bands (ev):

   -24.1718 -24.1680 -24.1009 -24.0026 -23.9803 -23.7814 -23.7740 -23.7570
   -23.7523 -23.6965 -11.8673  -6.3039  -3.9436  -3.9127  -1.5550   1.0922

          k = 0.1833 0.1058 0.0000 ( 20085 PWs)   bands (ev):

   -24.1634 -24.1596 -24.1019 -24.0016 -23.9825 -23.7796 -23.7788 -23.7620
   -23.7580 -23.6993 -11.9208  -6.0841  -3.9983  -3.8448  -1.6075   0.9415

          k = 0.1667 0.0962 0.0000 ( 20113 PWs)   bands (ev):

   -24.1550 -24.1511 -24.1027 -24.0006 -23.9846 -23.7857 -23.7765 -23.7717
   -23.7590 -23.7014 -11.9699  -5.8613  -4.0485  -3.7771  -1.6838   0.8289

          k = 0.1500 0.0866 0.0000 ( 20091 PWs)   bands (ev):

   -24.1469 -24.1428 -24.1034 -23.9996 -23.9865 -23.7922 -23.7812 -23.7743
   -23.7600 -23.7030 -12.0144  -5.6357  -4.0942  -3.7107  -1.7856   0.7421

          k = 0.1333 0.0770 0.0000 ( 20087 PWs)   bands (ev):

   -24.1390 -24.1346 -24.1040 -23.9987 -23.9883 -23.7990 -23.7905 -23.7723
   -23.7608 -23.7043 -12.0543  -5.4076  -4.1352  -3.6464  -1.9125   0.6813

          k = 0.1167 0.0674 0.0000 ( 20049 PWs)   bands (ev):

   -24.1317 -24.1268 -24.1043 -23.9979 -23.9898 -23.8057 -23.7993 -23.7705
   -23.7616 -23.7052 -12.0896  -5.1776  -4.1716  -3.5854  -2.0627   0.6440

          k = 0.1000 0.0577 0.0000 ( 20023 PWs)   bands (ev):

   -24.1252 -24.1195 -24.1042 -23.9972 -23.9912 -23.8121 -23.8075 -23.7689
   -23.7624 -23.7059 -12.1203  -4.9461  -4.2032  -3.5288  -2.2330   0.6262

          k = 0.0833 0.0481 0.0000 ( 20005 PWs)   bands (ev):

   -24.1198 -24.1128 -24.1036 -23.9966 -23.9924 -23.8181 -23.8149 -23.7676
   -23.7630 -23.7063 -12.1462  -4.7136  -4.2301  -3.4780  -2.4195   0.6231

          k = 0.0667 0.0385 0.0000 ( 20015 PWs)   bands (ev):

   -24.1161 -24.1070 -24.1021 -23.9960 -23.9933 -23.8234 -23.8213 -23.7665
   -23.7635 -23.7066 -12.1675  -4.4813  -4.2521  -3.4342  -2.6185   0.6299

          k = 0.0500 0.0289 0.0000 ( 20023 PWs)   bands (ev):

   -24.1140 -24.1022 -24.1000 -23.9956 -23.9941 -23.8278 -23.8266 -23.7656
   -23.7639 -23.7069 -12.1841  -4.2692  -4.2505  -3.3985  -2.8259   0.6416

          k = 0.0333 0.0192 0.0000 ( 20043 PWs)   bands (ev):

   -24.1130 -24.0987 -24.0978 -23.9953 -23.9946 -23.8310 -23.8305 -23.7650
   -23.7642 -23.7070 -12.1959  -4.2815  -4.0247  -3.3722  -3.0362   0.6539

          k = 0.0167 0.0096 0.0000 ( 20045 PWs)   bands (ev):

   -24.1125 -24.0965 -24.0963 -23.9951 -23.9950 -23.8331 -23.8329 -23.7646
   -23.7644 -23.7071 -12.2030  -4.2888  -3.8161  -3.3560  -3.2361   0.6631

          k = 0.0000 0.0000 0.0000 ( 20025 PWs)   bands (ev):

   -24.1124 -24.0957 -24.0957 -23.9951 -23.9951 -23.8338 -23.8338 -23.7645
   -23.7645 -23.7071 -12.2054  -4.2913  -3.6988  -3.3505  -3.3505   0.6665

     Writing all to output data dir ../tmp/stanene.save/

     init_run     :     14.63s CPU     23.31s WALL (       1 calls)
     electrons    :   1649.07s CPU   2768.02s WALL (       1 calls)

     Called by init_run:
     wfcinit      :      0.00s CPU      0.01s WALL (       1 calls)
     wfcinit:atom :      0.16s CPU      0.14s WALL (      91 calls)
     wfcinit:wfcr :     69.34s CPU    119.55s WALL (      91 calls)
     potinit      :      0.45s CPU      0.60s WALL (       1 calls)
     hinit0       :      0.60s CPU      0.64s WALL (       1 calls)

     Called by electrons:
     c_bands      :   1649.06s CPU   2768.00s WALL (       1 calls)
     v_of_rho     :      0.21s CPU      0.28s WALL (       1 calls)
     v_h          :      0.02s CPU      0.02s WALL (       1 calls)
     v_xc         :      0.19s CPU      0.26s WALL (       1 calls)
     newd         :     13.41s CPU     21.87s WALL (       1 calls)

     Called by c_bands:
     init_us_2    :      0.27s CPU      0.26s WALL (      91 calls)
     init_us_2:cp :      0.27s CPU      0.26s WALL (      91 calls)
     cegterg      :   1568.25s CPU   2633.72s WALL (     145 calls)

     Called by sum_band:

     Called by *egterg:
     cdiaghg      :     74.07s CPU    148.00s WALL (    2284 calls)
     cegterg:over :    492.50s CPU    774.87s WALL (    2193 calls)
     cegterg:upda :     72.89s CPU    146.09s WALL (    2193 calls)
     cegterg:last :     62.16s CPU    131.04s WALL (    1063 calls)
     h_psi        :    680.47s CPU   1180.20s WALL (    2429 calls)
     s_psi        :     32.93s CPU     67.49s WALL (    2429 calls)
     g_psi        :      0.39s CPU      0.49s WALL (    2193 calls)

     Called by h_psi:
     h_psi:calbec :    465.26s CPU    866.60s WALL (    2429 calls)
     vloc_psi     :    143.36s CPU    141.70s WALL (    2429 calls)
     add_vuspsi   :     71.48s CPU    171.28s WALL (    2429 calls)

     General routines
     calbec       :    465.25s CPU    866.28s WALL (    2429 calls)
     fft          :      0.45s CPU      0.48s WALL (      13 calls)
     ffts         :      0.21s CPU      0.21s WALL (       1 calls)
     fftw         :    131.27s CPU    126.82s WALL (   38984 calls)
     interpolate  :      0.23s CPU      0.23s WALL (       1 calls)
     davcio       :      0.73s CPU      2.60s WALL (     182 calls)

     Parallel routines

     PWSCF        :  27m45.72s CPU  46m40.45s WALL


   This run was terminated on:  18:19:52  23Jun2024            

=------------------------------------------------------------------------------=
   JOB DONE.
=------------------------------------------------------------------------------=
