
     Program PWSCF v.7.2 starts on 23Jun2024 at 16:48:44 

     This program is part of the open-source Quantum ESPRESSO suite
     for quantum simulation of materials; please cite
         "P. Giannozzi et al., J. Phys.:Condens. Matter 21 395502 (2009);
         "P. Giannozzi et al., J. Phys.:Condens. Matter 29 465901 (2017);
         "P. Giannozzi et al., J. Chem. Phys. 152 154105 (2020);
          URL http://www.quantum-espresso.org", 
     in publications or presentations arising from this work. More details at
     http://www.quantum-espresso.org/quote

     Parallel version (MPI), running on     6 processors

     MPI processes distributed on     1 nodes
     5578 MiB available memory on the printing compute node when the environment starts

     Waiting for input...
     Reading input from standard input

     Current dimensions of program PWSCF are:
     Max number of different atomic species (ntypx) = 10
     Max number of k-points (npk) =  40000
     Max angular momentum in pseudopotentials (lmaxx) =  4

     R & G space division:  proc/nbgrp/npool/nimage =       6
     Subspace diagonalization in iterative solution of the eigenvalue problem:
     a serial algorithm will be used


     Parallelization info
     --------------------
     sticks:   dense  smooth     PW     G-vecs:    dense   smooth      PW
     Min         431     214     61                75909    26818    4015
     Max         432     215     62                75924    26841    4025
     Sum        2587    1285    367               455489   160939   24117

     Using Slab Decomposition



     bravais-lattice index     =            4
     lattice parameter (alat)  =       8.8506  a.u.
     unit-cell volume          =    2563.9136 (a.u.)^3
     number of atoms/cell      =            2
     number of atomic types    =            1
     number of electrons       =        28.00
     number of Kohn-Sham states=           16
     kinetic-energy cutoff     =      60.0000  Ry
     charge density cutoff     =     480.0000  Ry
     scf convergence threshold =      1.0E-07
     mixing beta               =       0.7000
     number of iterations used =            8  plain     mixing
     Exchange-correlation= SLA  PW   PBE  PBE
                           (   1   4   3   4   0   0   0)

     celldm(1)=   8.850584  celldm(2)=   0.000000  celldm(3)=   4.270286
     celldm(4)=   0.000000  celldm(5)=   0.000000  celldm(6)=   0.000000

     crystal axes: (cart. coord. in units of alat)
               a(1) = (   1.000000   0.000000   0.000000 )  
               a(2) = (  -0.500000   0.866025   0.000000 )  
               a(3) = (   0.000000   0.000000   4.270286 )  

     reciprocal axes: (cart. coord. in units 2 pi/alat)
               b(1) = (  1.000000  0.577350 -0.000000 )  
               b(2) = (  0.000000  1.154701  0.000000 )  
               b(3) = (  0.000000 -0.000000  0.234176 )  


     PseudoPot. # 1 for Sn read from file:
     ../pseudo/Sn_pbe_v1.uspp.F.UPF
     MD5 check sum: 4cf58ce39ec5d5d420df3dd08604eb00
     Pseudo is Ultrasoft + core correction, Zval = 14.0
     Generated by new atomic code, or converted to UPF format
     Using radial grid of  891 points,  6 beta functions with: 
                l(1) =   0
                l(2) =   0
                l(3) =   1
                l(4) =   1
                l(5) =   2
                l(6) =   2
     Q(r) pseudized with  6 coefficients,  rinner =    1.200   1.200   1.200
                                                       1.200   1.200

     atomic species   valence    mass     pseudopotential
        Sn            14.00   118.71000     Sn( 1.00)

     24 Sym. Ops., with inversion, found


                                    s                        frac. trans.

      isym =  1     identity                                     

 cryst.   s( 1) = (     1          0          0      )
                  (     0          1          0      )
                  (     0          0          1      )

 cart.    s( 1) = (  1.0000000  0.0000000  0.0000000 )
                  (  0.0000000  1.0000000  0.0000000 )
                  (  0.0000000  0.0000000  1.0000000 )


      isym =  2     180 deg rotation - cart. axis [0,0,1]        

 cryst.   s( 2) = (    -1          0          0      )
                  (     0         -1          0      )
                  (     0          0          1      )

 cart.    s( 2) = ( -1.0000000  0.0000000  0.0000000 )
                  (  0.0000000 -1.0000000  0.0000000 )
                  (  0.0000000  0.0000000  1.0000000 )


      isym =  3     180 deg rotation - cart. axis [0,1,0]        

 cryst.   s( 3) = (    -1          0          0      )
                  (     1          1          0      )
                  (     0          0         -1      )

 cart.    s( 3) = ( -1.0000000  0.0000000  0.0000000 )
                  (  0.0000000  1.0000000  0.0000000 )
                  (  0.0000000  0.0000000 -1.0000000 )


      isym =  4     180 deg rotation - cart. axis [1,0,0]        

 cryst.   s( 4) = (     1          0          0      )
                  (    -1         -1          0      )
                  (     0          0         -1      )

 cart.    s( 4) = (  1.0000000  0.0000000  0.0000000 )
                  (  0.0000000 -1.0000000  0.0000000 )
                  (  0.0000000  0.0000000 -1.0000000 )


      isym =  5      60 deg rotation - cryst. axis [0,0,1]       

 cryst.   s( 5) = (     1          1          0      )
                  (    -1          0          0      )
                  (     0          0          1      )

 cart.    s( 5) = (  0.5000000 -0.8660254  0.0000000 )
                  (  0.8660254  0.5000000  0.0000000 )
                  (  0.0000000  0.0000000  1.0000000 )


      isym =  6      60 deg rotation - cryst. axis [0,0,-1]      

 cryst.   s( 6) = (     0         -1          0      )
                  (     1          1          0      )
                  (     0          0          1      )

 cart.    s( 6) = (  0.5000000  0.8660254  0.0000000 )
                  ( -0.8660254  0.5000000  0.0000000 )
                  (  0.0000000  0.0000000  1.0000000 )


      isym =  7     120 deg rotation - cryst. axis [0,0,1]       

 cryst.   s( 7) = (     0          1          0      )
                  (    -1         -1          0      )
                  (     0          0          1      )

 cart.    s( 7) = ( -0.5000000 -0.8660254  0.0000000 )
                  (  0.8660254 -0.5000000  0.0000000 )
                  (  0.0000000  0.0000000  1.0000000 )


      isym =  8     120 deg rotation - cryst. axis [0,0,-1]      

 cryst.   s( 8) = (    -1         -1          0      )
                  (     1          0          0      )
                  (     0          0          1      )

 cart.    s( 8) = ( -0.5000000  0.8660254  0.0000000 )
                  ( -0.8660254 -0.5000000  0.0000000 )
                  (  0.0000000  0.0000000  1.0000000 )


      isym =  9     180 deg rotation - cryst. axis [1,-1,0]      

 cryst.   s( 9) = (     0         -1          0      )
                  (    -1          0          0      )
                  (     0          0         -1      )

 cart.    s( 9) = (  0.5000000 -0.8660254  0.0000000 )
                  ( -0.8660254 -0.5000000  0.0000000 )
                  (  0.0000000  0.0000000 -1.0000000 )


      isym = 10     180 deg rotation - cryst. axis [2,1,0]       

 cryst.   s(10) = (     1          1          0      )
                  (     0         -1          0      )
                  (     0          0         -1      )

 cart.    s(10) = (  0.5000000  0.8660254  0.0000000 )
                  (  0.8660254 -0.5000000  0.0000000 )
                  (  0.0000000  0.0000000 -1.0000000 )


      isym = 11     180 deg rotation - cryst. axis [0,1,0]       

 cryst.   s(11) = (    -1         -1          0      )
                  (     0          1          0      )
                  (     0          0         -1      )

 cart.    s(11) = ( -0.5000000 -0.8660254  0.0000000 )
                  ( -0.8660254  0.5000000  0.0000000 )
                  (  0.0000000  0.0000000 -1.0000000 )


      isym = 12     180 deg rotation - cryst. axis [1,1,0]       

 cryst.   s(12) = (     0          1          0      )
                  (     1          0          0      )
                  (     0          0         -1      )

 cart.    s(12) = ( -0.5000000  0.8660254  0.0000000 )
                  (  0.8660254  0.5000000  0.0000000 )
                  (  0.0000000  0.0000000 -1.0000000 )


      isym = 13     inversion                                    

 cryst.   s(13) = (    -1          0          0      )
                  (     0         -1          0      )
                  (     0          0         -1      )

 cart.    s(13) = ( -1.0000000  0.0000000  0.0000000 )
                  (  0.0000000 -1.0000000  0.0000000 )
                  (  0.0000000  0.0000000 -1.0000000 )


      isym = 14     inv. 180 deg rotation - cart. axis [0,0,1]   

 cryst.   s(14) = (     1          0          0      )
                  (     0          1          0      )
                  (     0          0         -1      )

 cart.    s(14) = (  1.0000000  0.0000000  0.0000000 )
                  (  0.0000000  1.0000000  0.0000000 )
                  (  0.0000000  0.0000000 -1.0000000 )


      isym = 15     inv. 180 deg rotation - cart. axis [0,1,0]   

 cryst.   s(15) = (     1          0          0      )
                  (    -1         -1          0      )
                  (     0          0          1      )

 cart.    s(15) = (  1.0000000  0.0000000  0.0000000 )
                  (  0.0000000 -1.0000000  0.0000000 )
                  (  0.0000000  0.0000000  1.0000000 )


      isym = 16     inv. 180 deg rotation - cart. axis [1,0,0]   

 cryst.   s(16) = (    -1          0          0      )
                  (     1          1          0      )
                  (     0          0          1      )

 cart.    s(16) = ( -1.0000000  0.0000000  0.0000000 )
                  (  0.0000000  1.0000000  0.0000000 )
                  (  0.0000000  0.0000000  1.0000000 )


      isym = 17     inv.  60 deg rotation - cryst. axis [0,0,1]  

 cryst.   s(17) = (    -1         -1          0      )
                  (     1          0          0      )
                  (     0          0         -1      )

 cart.    s(17) = ( -0.5000000  0.8660254  0.0000000 )
                  ( -0.8660254 -0.5000000  0.0000000 )
                  (  0.0000000  0.0000000 -1.0000000 )


      isym = 18     inv.  60 deg rotation - cryst. axis [0,0,-1] 

 cryst.   s(18) = (     0          1          0      )
                  (    -1         -1          0      )
                  (     0          0         -1      )

 cart.    s(18) = ( -0.5000000 -0.8660254  0.0000000 )
                  (  0.8660254 -0.5000000  0.0000000 )
                  (  0.0000000  0.0000000 -1.0000000 )


      isym = 19     inv. 120 deg rotation - cryst. axis [0,0,1]  

 cryst.   s(19) = (     0         -1          0      )
                  (     1          1          0      )
                  (     0          0         -1      )

 cart.    s(19) = (  0.5000000  0.8660254  0.0000000 )
                  ( -0.8660254  0.5000000  0.0000000 )
                  (  0.0000000  0.0000000 -1.0000000 )


      isym = 20     inv. 120 deg rotation - cryst. axis [0,0,-1] 

 cryst.   s(20) = (     1          1          0      )
                  (    -1          0          0      )
                  (     0          0         -1      )

 cart.    s(20) = (  0.5000000 -0.8660254  0.0000000 )
                  (  0.8660254  0.5000000  0.0000000 )
                  (  0.0000000  0.0000000 -1.0000000 )


      isym = 21     inv. 180 deg rotation - cryst. axis [1,-1,0] 

 cryst.   s(21) = (     0          1          0      )
                  (     1          0          0      )
                  (     0          0          1      )

 cart.    s(21) = ( -0.5000000  0.8660254  0.0000000 )
                  (  0.8660254  0.5000000  0.0000000 )
                  (  0.0000000  0.0000000  1.0000000 )


      isym = 22     inv. 180 deg rotation - cryst. axis [2,1,0]  

 cryst.   s(22) = (    -1         -1          0      )
                  (     0          1          0      )
                  (     0          0          1      )

 cart.    s(22) = ( -0.5000000 -0.8660254  0.0000000 )
                  ( -0.8660254  0.5000000  0.0000000 )
                  (  0.0000000  0.0000000  1.0000000 )


      isym = 23     inv. 180 deg rotation - cryst. axis [0,1,0]  

 cryst.   s(23) = (     1          1          0      )
                  (     0         -1          0      )
                  (     0          0          1      )

 cart.    s(23) = (  0.5000000  0.8660254  0.0000000 )
                  (  0.8660254 -0.5000000  0.0000000 )
                  (  0.0000000  0.0000000  1.0000000 )


      isym = 24     inv. 180 deg rotation - cryst. axis [1,1,0]  

 cryst.   s(24) = (     0         -1          0      )
                  (    -1          0          0      )
                  (     0          0          1      )

 cart.    s(24) = (  0.5000000 -0.8660254  0.0000000 )
                  ( -0.8660254 -0.5000000  0.0000000 )
                  (  0.0000000  0.0000000  1.0000000 )


     point group D_6h(6/mmm)
     there are 12 classes
     the character table:

       E     2C6   2C3   C2    3C2'  3C2'' i     2S3   2S6   s_h   3s_d  3s_v 
A_1g   1.00  1.00  1.00  1.00  1.00  1.00  1.00  1.00  1.00  1.00  1.00  1.00
A_2g   1.00  1.00  1.00  1.00 -1.00 -1.00  1.00  1.00  1.00  1.00 -1.00 -1.00
B_1g   1.00 -1.00  1.00 -1.00  1.00 -1.00  1.00 -1.00  1.00 -1.00  1.00 -1.00
B_2g   1.00 -1.00  1.00 -1.00 -1.00  1.00  1.00 -1.00  1.00 -1.00 -1.00  1.00
E_1g   2.00  1.00 -1.00 -2.00  0.00  0.00  2.00  1.00 -1.00 -2.00  0.00  0.00
E_2g   2.00 -1.00 -1.00  2.00  0.00  0.00  2.00 -1.00 -1.00  2.00  0.00  0.00
A_1u   1.00  1.00  1.00  1.00  1.00  1.00 -1.00 -1.00 -1.00 -1.00 -1.00 -1.00
A_2u   1.00  1.00  1.00  1.00 -1.00 -1.00 -1.00 -1.00 -1.00 -1.00  1.00  1.00
B_1u   1.00 -1.00  1.00 -1.00  1.00 -1.00 -1.00  1.00 -1.00  1.00 -1.00  1.00
B_2u   1.00 -1.00  1.00 -1.00 -1.00  1.00 -1.00  1.00 -1.00  1.00  1.00 -1.00
E_1u   2.00  1.00 -1.00 -2.00  0.00  0.00 -2.00 -1.00  1.00  2.00  0.00  0.00
E_2u   2.00 -1.00 -1.00  2.00  0.00  0.00 -2.00  1.00  1.00 -2.00  0.00  0.00

     the symmetry operations in each class and the name of the first element:

     E        1
          identity                                               
     2C6      5    6
           60 deg rotation - cryst. axis [0,0,1]                 
     2C3      7    8
          120 deg rotation - cryst. axis [0,0,1]                 
     C2       2
          180 deg rotation - cart. axis [0,0,1]                  
     3C2'     4   12   11
          180 deg rotation - cart. axis [1,0,0]                  
     3C2''    3    9   10
          180 deg rotation - cart. axis [0,1,0]                  
     i       13
          inversion                                              
     2S3     17   18
          inv.  60 deg rotation - cryst. axis [0,0,1]            
     2S6     19   20
          inv. 120 deg rotation - cryst. axis [0,0,1]            
     s_h     14
          inv. 180 deg rotation - cart. axis [0,0,1]             
     3s_d    16   24   23
          inv. 180 deg rotation - cart. axis [1,0,0]             
     3s_v    15   21   22
          inv. 180 deg rotation - cart. axis [0,1,0]             

   Cartesian axes

     site n.     atom                  positions (alat units)
         1           Sn  tau(   1) = (   0.0000000   0.5773503   2.1351428  )
         2           Sn  tau(   2) = (   0.5000000   0.2886751   2.1351428  )

   Crystallographic axes

     site n.     atom                  positions (cryst. coord.)
         1           Sn  tau(   1) = (  0.3333333  0.6666667  0.5000000  )
         2           Sn  tau(   2) = (  0.6666667  0.3333333  0.5000000  )

     number of k points=    61  Methfessel-Paxton smearing, width (Ry)=  0.0200
                       cart. coord. in units 2pi/alat
        k(    1) = (   0.0000000   0.0000000   0.0000000), wk =   0.0034722
        k(    2) = (   0.0000000   0.0481125   0.0000000), wk =   0.0208333
        k(    3) = (   0.0000000   0.0962250   0.0000000), wk =   0.0208333
        k(    4) = (   0.0000000   0.1443376   0.0000000), wk =   0.0208333
        k(    5) = (   0.0000000   0.1924501   0.0000000), wk =   0.0208333
        k(    6) = (   0.0000000   0.2405626   0.0000000), wk =   0.0208333
        k(    7) = (   0.0000000   0.2886751   0.0000000), wk =   0.0208333
        k(    8) = (   0.0000000   0.3367877   0.0000000), wk =   0.0208333
        k(    9) = (   0.0000000   0.3849002   0.0000000), wk =   0.0208333
        k(   10) = (   0.0000000   0.4330127   0.0000000), wk =   0.0208333
        k(   11) = (   0.0000000   0.4811252   0.0000000), wk =   0.0208333
        k(   12) = (   0.0000000   0.5292377   0.0000000), wk =   0.0208333
        k(   13) = (   0.0000000  -0.5773503   0.0000000), wk =   0.0104167
        k(   14) = (   0.0416667   0.0721688   0.0000000), wk =   0.0208333
        k(   15) = (   0.0416667   0.1202813   0.0000000), wk =   0.0416667
        k(   16) = (   0.0416667   0.1683938   0.0000000), wk =   0.0416667
        k(   17) = (   0.0416667   0.2165064   0.0000000), wk =   0.0416667
        k(   18) = (   0.0416667   0.2646189   0.0000000), wk =   0.0416667
        k(   19) = (   0.0416667   0.3127314   0.0000000), wk =   0.0416667
        k(   20) = (   0.0416667   0.3608439   0.0000000), wk =   0.0416667
        k(   21) = (   0.0416667   0.4089564   0.0000000), wk =   0.0416667
        k(   22) = (   0.0416667   0.4570690   0.0000000), wk =   0.0416667
        k(   23) = (   0.0416667   0.5051815   0.0000000), wk =   0.0416667
        k(   24) = (   0.0416667   0.5532940   0.0000000), wk =   0.0416667
        k(   25) = (   0.0833333   0.1443376   0.0000000), wk =   0.0208333
        k(   26) = (   0.0833333   0.1924501   0.0000000), wk =   0.0416667
        k(   27) = (   0.0833333   0.2405626   0.0000000), wk =   0.0416667
        k(   28) = (   0.0833333   0.2886751   0.0000000), wk =   0.0416667
        k(   29) = (   0.0833333   0.3367877   0.0000000), wk =   0.0416667
        k(   30) = (   0.0833333   0.3849002   0.0000000), wk =   0.0416667
        k(   31) = (   0.0833333   0.4330127   0.0000000), wk =   0.0416667
        k(   32) = (   0.0833333   0.4811252   0.0000000), wk =   0.0416667
        k(   33) = (   0.0833333   0.5292377   0.0000000), wk =   0.0416667
        k(   34) = (   0.0833333   0.5773503   0.0000000), wk =   0.0208333
        k(   35) = (   0.1250000   0.2165064   0.0000000), wk =   0.0208333
        k(   36) = (   0.1250000   0.2646189   0.0000000), wk =   0.0416667
        k(   37) = (   0.1250000   0.3127314   0.0000000), wk =   0.0416667
        k(   38) = (   0.1250000   0.3608439   0.0000000), wk =   0.0416667
        k(   39) = (   0.1250000   0.4089564   0.0000000), wk =   0.0416667
        k(   40) = (   0.1250000   0.4570690   0.0000000), wk =   0.0416667
        k(   41) = (   0.1250000   0.5051815   0.0000000), wk =   0.0416667
        k(   42) = (   0.1250000   0.5532940   0.0000000), wk =   0.0416667
        k(   43) = (   0.1666667   0.2886751   0.0000000), wk =   0.0208333
        k(   44) = (   0.1666667   0.3367877   0.0000000), wk =   0.0416667
        k(   45) = (   0.1666667   0.3849002   0.0000000), wk =   0.0416667
        k(   46) = (   0.1666667   0.4330127   0.0000000), wk =   0.0416667
        k(   47) = (   0.1666667   0.4811252   0.0000000), wk =   0.0416667
        k(   48) = (   0.1666667   0.5292377   0.0000000), wk =   0.0416667
        k(   49) = (   0.1666667   0.5773503   0.0000000), wk =   0.0208333
        k(   50) = (   0.2083333   0.3608439   0.0000000), wk =   0.0208333
        k(   51) = (   0.2083333   0.4089564   0.0000000), wk =   0.0416667
        k(   52) = (   0.2083333   0.4570690   0.0000000), wk =   0.0416667
        k(   53) = (   0.2083333   0.5051815   0.0000000), wk =   0.0416667
        k(   54) = (   0.2083333   0.5532940   0.0000000), wk =   0.0416667
        k(   55) = (   0.2500000   0.4330127   0.0000000), wk =   0.0208333
        k(   56) = (   0.2500000   0.4811252   0.0000000), wk =   0.0416667
        k(   57) = (   0.2500000   0.5292377   0.0000000), wk =   0.0416667
        k(   58) = (   0.2500000   0.5773503   0.0000000), wk =   0.0208333
        k(   59) = (   0.2916667   0.5051815   0.0000000), wk =   0.0208333
        k(   60) = (   0.2916667   0.5532940   0.0000000), wk =   0.0416667
        k(   61) = (   0.3333333   0.5773503   0.0000000), wk =   0.0069444

                       cryst. coord.
        k(    1) = (   0.0000000   0.0000000   0.0000000), wk =   0.0034722
        k(    2) = (   0.0000000   0.0416667   0.0000000), wk =   0.0208333
        k(    3) = (   0.0000000   0.0833333   0.0000000), wk =   0.0208333
        k(    4) = (   0.0000000   0.1250000   0.0000000), wk =   0.0208333
        k(    5) = (   0.0000000   0.1666667   0.0000000), wk =   0.0208333
        k(    6) = (   0.0000000   0.2083333   0.0000000), wk =   0.0208333
        k(    7) = (   0.0000000   0.2500000   0.0000000), wk =   0.0208333
        k(    8) = (   0.0000000   0.2916667   0.0000000), wk =   0.0208333
        k(    9) = (   0.0000000   0.3333333   0.0000000), wk =   0.0208333
        k(   10) = (   0.0000000   0.3750000   0.0000000), wk =   0.0208333
        k(   11) = (   0.0000000   0.4166667   0.0000000), wk =   0.0208333
        k(   12) = (   0.0000000   0.4583333   0.0000000), wk =   0.0208333
        k(   13) = (   0.0000000  -0.5000000   0.0000000), wk =   0.0104167
        k(   14) = (   0.0416667   0.0416667   0.0000000), wk =   0.0208333
        k(   15) = (   0.0416667   0.0833333   0.0000000), wk =   0.0416667
        k(   16) = (   0.0416667   0.1250000   0.0000000), wk =   0.0416667
        k(   17) = (   0.0416667   0.1666667   0.0000000), wk =   0.0416667
        k(   18) = (   0.0416667   0.2083333   0.0000000), wk =   0.0416667
        k(   19) = (   0.0416667   0.2500000   0.0000000), wk =   0.0416667
        k(   20) = (   0.0416667   0.2916667   0.0000000), wk =   0.0416667
        k(   21) = (   0.0416667   0.3333333   0.0000000), wk =   0.0416667
        k(   22) = (   0.0416667   0.3750000   0.0000000), wk =   0.0416667
        k(   23) = (   0.0416667   0.4166667   0.0000000), wk =   0.0416667
        k(   24) = (   0.0416667   0.4583333   0.0000000), wk =   0.0416667
        k(   25) = (   0.0833333   0.0833333   0.0000000), wk =   0.0208333
        k(   26) = (   0.0833333   0.1250000   0.0000000), wk =   0.0416667
        k(   27) = (   0.0833333   0.1666667   0.0000000), wk =   0.0416667
        k(   28) = (   0.0833333   0.2083333   0.0000000), wk =   0.0416667
        k(   29) = (   0.0833333   0.2500000   0.0000000), wk =   0.0416667
        k(   30) = (   0.0833333   0.2916667   0.0000000), wk =   0.0416667
        k(   31) = (   0.0833333   0.3333333   0.0000000), wk =   0.0416667
        k(   32) = (   0.0833333   0.3750000   0.0000000), wk =   0.0416667
        k(   33) = (   0.0833333   0.4166667   0.0000000), wk =   0.0416667
        k(   34) = (   0.0833333   0.4583333   0.0000000), wk =   0.0208333
        k(   35) = (   0.1250000   0.1250000   0.0000000), wk =   0.0208333
        k(   36) = (   0.1250000   0.1666667   0.0000000), wk =   0.0416667
        k(   37) = (   0.1250000   0.2083333   0.0000000), wk =   0.0416667
        k(   38) = (   0.1250000   0.2500000   0.0000000), wk =   0.0416667
        k(   39) = (   0.1250000   0.2916667   0.0000000), wk =   0.0416667
        k(   40) = (   0.1250000   0.3333333   0.0000000), wk =   0.0416667
        k(   41) = (   0.1250000   0.3750000   0.0000000), wk =   0.0416667
        k(   42) = (   0.1250000   0.4166667   0.0000000), wk =   0.0416667
        k(   43) = (   0.1666667   0.1666667   0.0000000), wk =   0.0208333
        k(   44) = (   0.1666667   0.2083333   0.0000000), wk =   0.0416667
        k(   45) = (   0.1666667   0.2500000   0.0000000), wk =   0.0416667
        k(   46) = (   0.1666667   0.2916667   0.0000000), wk =   0.0416667
        k(   47) = (   0.1666667   0.3333333   0.0000000), wk =   0.0416667
        k(   48) = (   0.1666667   0.3750000   0.0000000), wk =   0.0416667
        k(   49) = (   0.1666667   0.4166667   0.0000000), wk =   0.0208333
        k(   50) = (   0.2083333   0.2083333   0.0000000), wk =   0.0208333
        k(   51) = (   0.2083333   0.2500000   0.0000000), wk =   0.0416667
        k(   52) = (   0.2083333   0.2916667   0.0000000), wk =   0.0416667
        k(   53) = (   0.2083333   0.3333333   0.0000000), wk =   0.0416667
        k(   54) = (   0.2083333   0.3750000   0.0000000), wk =   0.0416667
        k(   55) = (   0.2500000   0.2500000   0.0000000), wk =   0.0208333
        k(   56) = (   0.2500000   0.2916667   0.0000000), wk =   0.0416667
        k(   57) = (   0.2500000   0.3333333   0.0000000), wk =   0.0416667
        k(   58) = (   0.2500000   0.3750000   0.0000000), wk =   0.0208333
        k(   59) = (   0.2916667   0.2916667   0.0000000), wk =   0.0208333
        k(   60) = (   0.2916667   0.3333333   0.0000000), wk =   0.0416667
        k(   61) = (   0.3333333   0.3333333   0.0000000), wk =   0.0069444

     Dense  grid:   455489 G-vectors     FFT dimensions: (  64,  64, 270)

     Smooth grid:   160939 G-vectors     FFT dimensions: (  45,  45, 192)

     Dynamical RAM for                 wfc:       0.82 MB

     Dynamical RAM for     wfc (w. buffer):      50.75 MB

     Dynamical RAM for           str. fact:       1.16 MB

     Dynamical RAM for           local pot:       0.00 MB

     Dynamical RAM for          nlocal pot:       1.84 MB

     Dynamical RAM for                qrad:       1.76 MB

     Dynamical RAM for          rho,v,vnew:       7.69 MB

     Dynamical RAM for               rhoin:       2.56 MB

     Dynamical RAM for            rho*nmix:      18.53 MB

     Dynamical RAM for           G-vectors:       4.55 MB

     Dynamical RAM for          h,s,v(r/c):       0.05 MB

     Dynamical RAM for          <psi|beta>:       0.01 MB

     Dynamical RAM for                 psi:       1.64 MB

     Dynamical RAM for                hpsi:       1.64 MB

     Dynamical RAM for                spsi:       1.64 MB

     Dynamical RAM for      wfcinit/wfcrot:       1.85 MB

     Dynamical RAM for           addusdens:     217.76 MB

     Estimated static dynamical RAM per process >      79.67 MB

     Estimated max dynamical RAM per process >     315.96 MB

     Estimated total dynamical RAM >       1.85 GB

     Initial potential from superposition of free atoms

     starting charge      25.9999, renormalised to      28.0000

     negative rho (up, down):  6.188E-04 0.000E+00
     Starting wfcs are   18 randomized atomic wfcs

     total cpu time spent up to now is      139.4 secs

     Self-consistent Calculation

     iteration #  1     ecut=    60.00 Ry     beta= 0.70
     Davidson diagonalization with overlap

---- Real-time Memory Report at c_bands before calling an iterative solver
           305 MiB given to the printing process from OS
             0 MiB allocation reported by mallinfo(arena+hblkhd)
          4900 MiB available memory on the node where the printing process lives
------------------
     ethr =  1.00E-02,  avg # of iterations =  3.0

     negative rho (up, down):  1.037E-04 0.000E+00

     total cpu time spent up to now is      613.4 secs

     total energy              =    -325.47588617 Ry
     estimated scf accuracy    <       2.43718120 Ry

     iteration #  2     ecut=    60.00 Ry     beta= 0.70
     Davidson diagonalization with overlap

---- Real-time Memory Report at c_bands before calling an iterative solver
           383 MiB given to the printing process from OS
             0 MiB allocation reported by mallinfo(arena+hblkhd)
          4666 MiB available memory on the node where the printing process lives
------------------
     ethr =  8.70E-03,  avg # of iterations =  2.0

     negative rho (up, down):  8.768E-05 0.000E+00

     total cpu time spent up to now is      881.7 secs

     total energy              =    -326.34091534 Ry
     estimated scf accuracy    <       0.33269343 Ry

     iteration #  3     ecut=    60.00 Ry     beta= 0.70
     Davidson diagonalization with overlap

---- Real-time Memory Report at c_bands before calling an iterative solver
           384 MiB given to the printing process from OS
             0 MiB allocation reported by mallinfo(arena+hblkhd)
          4647 MiB available memory on the node where the printing process lives
------------------
     ethr =  1.19E-03,  avg # of iterations =  2.0

     negative rho (up, down):  9.202E-05 0.000E+00

     total cpu time spent up to now is     1165.1 secs

     total energy              =    -326.39060505 Ry
     estimated scf accuracy    <       0.00522848 Ry

     iteration #  4     ecut=    60.00 Ry     beta= 0.70
     Davidson diagonalization with overlap

---- Real-time Memory Report at c_bands before calling an iterative solver
           385 MiB given to the printing process from OS
             0 MiB allocation reported by mallinfo(arena+hblkhd)
          4645 MiB available memory on the node where the printing process lives
------------------
     ethr =  1.87E-05,  avg # of iterations =  3.1

     negative rho (up, down):  8.850E-05 0.000E+00

     total cpu time spent up to now is     1490.3 secs

     total energy              =    -326.39251397 Ry
     estimated scf accuracy    <       0.00083049 Ry

     iteration #  5     ecut=    60.00 Ry     beta= 0.70
     Davidson diagonalization with overlap

---- Real-time Memory Report at c_bands before calling an iterative solver
           386 MiB given to the printing process from OS
             0 MiB allocation reported by mallinfo(arena+hblkhd)
          4645 MiB available memory on the node where the printing process lives
------------------
     ethr =  2.97E-06,  avg # of iterations =  3.1

     negative rho (up, down):  8.743E-05 0.000E+00

     total cpu time spent up to now is     1807.3 secs

     total energy              =    -326.39268356 Ry
     estimated scf accuracy    <       0.00000075 Ry

     iteration #  6     ecut=    60.00 Ry     beta= 0.70
     Davidson diagonalization with overlap

---- Real-time Memory Report at c_bands before calling an iterative solver
           389 MiB given to the printing process from OS
             0 MiB allocation reported by mallinfo(arena+hblkhd)
          4638 MiB available memory on the node where the printing process lives
------------------
     ethr =  2.67E-09,  avg # of iterations =  5.1

     negative rho (up, down):  8.726E-05 0.000E+00

     total cpu time spent up to now is     2303.2 secs

     total energy              =    -326.39268460 Ry
     estimated scf accuracy    <       0.00000150 Ry

     iteration #  7     ecut=    60.00 Ry     beta= 0.70
     Davidson diagonalization with overlap

---- Real-time Memory Report at c_bands before calling an iterative solver
           394 MiB given to the printing process from OS
             0 MiB allocation reported by mallinfo(arena+hblkhd)
          4609 MiB available memory on the node where the printing process lives
------------------
     ethr =  2.67E-09,  avg # of iterations =  2.0

     negative rho (up, down):  8.723E-05 0.000E+00

     total cpu time spent up to now is     2659.0 secs

     End of self-consistent calculation

          k = 0.0000 0.0000 0.0000 ( 20025 PWs)   bands (ev):

   -24.1150 -24.0984 -24.0984 -23.9977 -23.9977 -23.8365 -23.8365 -23.7671
   -23.7671 -23.7097 -12.2071  -4.2925  -3.7006  -3.3523  -3.3523   0.6650

     occupation numbers 
     1.0000   1.0000   1.0000   1.0000   1.0000   1.0000   1.0000   1.0000
     1.0000   1.0000   1.0000   1.0000   1.0000   1.0000   1.0000  -0.0000

          k = 0.0000 0.0481 0.0000 ( 20035 PWs)   bands (ev):

   -24.1159 -24.1030 -24.1015 -23.9981 -23.9970 -23.8322 -23.8314 -23.7679
   -23.7667 -23.7095 -12.1923  -4.2771  -4.1383  -3.3859  -2.9329   0.6470

     occupation numbers 
     1.0000   1.0000   1.0000   1.0000   1.0000   1.0000   1.0000   1.0000
     1.0000   1.0000   1.0000   1.0000   1.0000   1.0000   1.0017  -0.0000

          k = 0.0000 0.0962 0.0000 ( 20005 PWs)   bands (ev):

   -24.1224 -24.1155 -24.1063 -23.9992 -23.9950 -23.8208 -23.8176 -23.7702
   -23.7656 -23.7089 -12.1480  -4.7154  -4.2312  -3.4798  -2.4213   0.6217

     occupation numbers 
     1.0000   1.0000   1.0000   1.0000   1.0000   1.0000   1.0000   1.0000
     1.0000   1.0000   1.0000   1.0000   1.0000   1.0000   0.8871  -0.0000

          k = 0.0000 0.1443 0.0000 ( 20065 PWs)   bands (ev):

   -24.1379 -24.1334 -24.1068 -24.0009 -23.9917 -23.8050 -23.7976 -23.7740
   -23.7639 -23.7074 -12.0743  -5.2946  -4.1552  -3.6172  -1.9867   0.6588

     occupation numbers 
     1.0000   1.0000   1.0000   1.0000   1.0000   1.0000   1.0000   1.0000
     1.0000   1.0000   1.0000   1.0000   1.0000   1.0000  -0.0306  -0.0000

          k = 0.0000 0.1925 0.0000 ( 20113 PWs)   bands (ev):

   -24.1577 -24.1538 -24.1053 -24.0032 -23.9872 -23.7884 -23.7791 -23.7744
   -23.7616 -23.7040 -11.9716  -5.8631  -4.0497  -3.7789  -1.6854   1.4025

     occupation numbers 
     1.0000   1.0000   1.0000   1.0000   1.0000   1.0000   1.0000   1.0000
     1.0000   1.0000   1.0000   1.0000   1.0000   1.0000  -0.0044  -0.0000

          k = 0.0000 0.2406 0.0000 ( 20071 PWs)   bands (ev):

   -24.1786 -24.1749 -24.1030 -24.0057 -23.9817 -23.7853 -23.7741 -23.7591
   -23.7502 -23.6976 -11.8407  -6.4142  -3.9482  -3.9158  -1.5385   1.0110

     occupation numbers 
     1.0000   1.0000   1.0000   1.0000   1.0000   1.0000   1.0000   1.0000
     1.0000   1.0000   1.0000   1.0000   1.0000   1.0000  -0.0004  -0.0000

          k = 0.0000 0.2887 0.0000 ( 20087 PWs)   bands (ev):

   -24.1991 -24.1951 -24.1004 -24.0084 -23.9754 -23.7924 -23.7643 -23.7564
   -23.7265 -23.6874 -11.6827  -6.9429  -4.1126  -3.7555  -1.5097   0.6047

     occupation numbers 
     1.0000   1.0000   1.0000   1.0000   1.0000   1.0000   1.0000   1.0000
     1.0000   1.0000   1.0000   1.0000   1.0000   1.0000  -0.0002  -0.0000

          k = 0.0000 0.3368 0.0000 ( 20109 PWs)   bands (ev):

   -24.2178 -24.2134 -24.0977 -24.0111 -23.9686 -23.7999 -23.7589 -23.7538
   -23.7047 -23.6746 -11.4998  -7.4439  -4.2628  -3.5714  -1.5443   0.1984

     occupation numbers 
     1.0000   1.0000   1.0000   1.0000   1.0000   1.0000   1.0000   1.0000
     1.0000   1.0000   1.0000   1.0000   1.0000   1.0000  -0.0005  -0.0000

          k = 0.0000 0.3849 0.0000 ( 20145 PWs)   bands (ev):

   -24.2340 -24.2292 -24.0952 -24.0135 -23.9617 -23.8076 -23.7566 -23.7514
   -23.6857 -23.6612 -11.2960  -7.9109  -4.3926  -3.3681  -1.6027  -0.1949

     occupation numbers 
     1.0000   1.0000   1.0000   1.0000   1.0000   1.0000   1.0000   1.0000
     1.0000   1.0000   1.0000   1.0000   1.0000   1.0000  -0.0013  -0.0000

          k = 0.0000 0.4330 0.0000 ( 20161 PWs)   bands (ev):

   -24.2472 -24.2420 -24.0929 -24.0155 -23.9551 -23.8148 -23.7560 -23.7494
   -23.6702 -23.6493 -11.0793  -8.3341  -4.4973  -3.1543  -1.6623  -0.5614

     occupation numbers 
     1.0000   1.0000   1.0000   1.0000   1.0000   1.0000   1.0000   1.0000
     1.0000   1.0000   1.0000   1.0000   1.0000   1.0000  -0.0032  -0.0000

          k = 0.0000 0.4811 0.0000 ( 20157 PWs)   bands (ev):

   -24.2569 -24.2513 -24.0911 -24.0171 -23.9496 -23.8208 -23.7560 -23.7478
   -23.6587 -23.6400 -10.8663  -8.6955  -4.5741  -2.9467  -1.7109  -0.8803

     occupation numbers 
     1.0000   1.0000   1.0000   1.0000   1.0000   1.0000   1.0000   1.0000
     1.0000   1.0000   1.0000   1.0000   1.0000   1.0014  -0.0061  -0.0000

          k = 0.0000 0.5292 0.0000 ( 20142 PWs)   bands (ev):

   -24.2628 -24.2570 -24.0900 -24.0180 -23.9459 -23.8248 -23.7562 -23.7469
   -23.6517 -23.6341 -10.6931  -8.9582  -4.6209  -2.7801  -1.7421  -1.1146

     occupation numbers 
     1.0000   1.0000   1.0000   1.0000   1.0000   1.0000   1.0000   1.0000
     1.0000   1.0000   1.0000   1.0000   1.0000   1.0126  -0.0090  -0.0000

          k = 0.0000-0.5774 0.0000 ( 20152 PWs)   bands (ev):

   -24.2648 -24.2589 -24.0896 -24.0183 -23.9445 -23.8262 -23.7563 -23.7465
   -23.6493 -23.6321 -10.6218  -9.0594  -4.6366  -2.7122  -1.7528  -1.2052

     occupation numbers 
     1.0000   1.0000   1.0000   1.0000   1.0000   1.0000   1.0000   1.0000
     1.0000   1.0000   1.0000   1.0000   1.0000   1.0230  -0.0101  -0.0000

          k = 0.0417 0.0722 0.0000 ( 20017 PWs)   bands (ev):

   -24.1205 -24.1081 -24.1081 -23.9988 -23.9956 -23.8244 -23.8220 -23.7694
   -23.7660 -23.7091 -12.1627  -4.5588  -4.2465  -3.4533  -2.5496   0.6165

     occupation numbers 
     1.0000   1.0000   1.0000   1.0000   1.0000   1.0000   1.0000   1.0000
     1.0000   1.0000   1.0000   1.0000   1.0000   1.0000   1.0255  -0.0000

          k = 0.0417 0.1203 0.0000 ( 20039 PWs)   bands (ev):

   -24.1352 -24.1210 -24.1091 -24.0003 -23.9929 -23.8109 -23.8053 -23.7725
   -23.7645 -23.7080 -12.1037  -5.0873  -4.1855  -3.5776  -2.1102   0.5983

     occupation numbers 
     1.0000   1.0000   1.0000   1.0000   1.0000   1.0000   1.0000   1.0000
     1.0000   1.0000   1.0000   1.0000   1.0000   1.0000   0.0750  -0.0000

          k = 0.0417 0.1684 0.0000 ( 20081 PWs)   bands (ev):

   -24.1555 -24.1380 -24.1077 -24.0023 -23.9890 -23.7946 -23.7843 -23.7770
   -23.7625 -23.7054 -12.0155  -5.6357  -4.0947  -3.7371  -1.7422   0.6646

     occupation numbers 
     1.0000   1.0000   1.0000   1.0000   1.0000   1.0000   1.0000   1.0000
     1.0000   1.0000   1.0000   1.0000   1.0000   1.0000  -0.0090  -0.0000

          k = 0.0417 0.2165 0.0000 ( 20075 PWs)   bands (ev):

   -24.1776 -24.1568 -24.1056 -24.0048 -23.9839 -23.7827 -23.7789 -23.7616
   -23.7600 -23.7001 -11.8986  -6.1801  -3.9750  -3.9119  -1.5087   1.1807

     occupation numbers 
     1.0000   1.0000   1.0000   1.0000   1.0000   1.0000   1.0000   1.0000
     1.0000   1.0000   1.0000   1.0000   1.0000   1.0000  -0.0002  -0.0000

          k = 0.0417 0.2646 0.0000 ( 20107 PWs)   bands (ev):

   -24.1997 -24.1758 -24.1030 -24.0075 -23.9779 -23.7895 -23.7670 -23.7574
   -23.7391 -23.6907 -11.7540  -6.7099  -4.0867  -3.8277  -1.4157   0.7859

     occupation numbers 
     1.0000   1.0000   1.0000   1.0000   1.0000   1.0000   1.0000   1.0000
     1.0000   1.0000   1.0000   1.0000   1.0000   1.0000  -0.0000  -0.0000

          k = 0.0417 0.3127 0.0000 ( 20105 PWs)   bands (ev):

   -24.2203 -24.1937 -24.1003 -24.0102 -23.9712 -23.7969 -23.7598 -23.7547
   -23.7181 -23.6775 -11.5833  -7.2179  -4.2504  -3.6552  -1.4171   0.3831

     occupation numbers 
     1.0000   1.0000   1.0000   1.0000   1.0000   1.0000   1.0000   1.0000
     1.0000   1.0000   1.0000   1.0000   1.0000   1.0000  -0.0000  -0.0000

          k = 0.0417 0.3608 0.0000 ( 20127 PWs)   bands (ev):

   -24.2386 -24.2096 -24.0976 -24.0128 -23.9642 -23.8047 -23.7565 -23.7521
   -23.6994 -23.6625 -11.3893  -7.6975  -4.3954  -3.4608  -1.4631  -0.0143

     occupation numbers 
     1.0000   1.0000   1.0000   1.0000   1.0000   1.0000   1.0000   1.0000
     1.0000   1.0000   1.0000   1.0000   1.0000   1.0000  -0.0001  -0.0000

          k = 0.0417 0.4090 0.0000 ( 20135 PWs)   bands (ev):

   -24.2540 -24.2230 -24.0951 -24.0151 -23.9573 -23.8123 -23.7553 -23.7499
   -23.6837 -23.6482 -11.1776  -8.1405  -4.5165  -3.2508  -1.5218  -0.3933

     occupation numbers 
     1.0000   1.0000   1.0000   1.0000   1.0000   1.0000   1.0000   1.0000
     1.0000   1.0000   1.0000   1.0000   1.0000   1.0000  -0.0003  -0.0000

          k = 0.0417 0.4571 0.0000 ( 20146 PWs)   bands (ev):

   -24.2659 -24.2334 -24.0931 -24.0169 -23.9510 -23.8191 -23.7552 -23.7481
   -23.6715 -23.6364 -10.9595  -8.5336  -4.6099  -3.0369  -1.5756  -0.7374

     occupation numbers 
     1.0000   1.0000   1.0000   1.0000   1.0000   1.0000   1.0000   1.0000
     1.0000   1.0000   1.0000   1.0000   1.0000   1.0003  -0.0008  -0.0000

          k = 0.0417 0.5052 0.0000 ( 20148 PWs)   bands (ev):

   -24.2739 -24.2405 -24.0916 -24.0181 -23.9462 -23.8243 -23.7555 -23.7468
   -23.6631 -23.6280 -10.7596  -8.8509  -4.6734  -2.8433  -1.6153  -1.0194

     occupation numbers 
     1.0000   1.0000   1.0000   1.0000   1.0000   1.0000   1.0000   1.0000
     1.0000   1.0000   1.0000   1.0000   1.0000   1.0061  -0.0016  -0.0000

          k = 0.0417 0.5533 0.0000 ( 20150 PWs)   bands (ev):

   -24.2780 -24.2441 -24.0908 -24.0188 -23.9435 -23.8272 -23.7557 -23.7461
   -23.6588 -23.6236 -10.6280  -9.0414  -4.7055  -2.7175  -1.6362  -1.1898

     occupation numbers 
     1.0000   1.0000   1.0000   1.0000   1.0000   1.0000   1.0000   1.0000
     1.0000   1.0000   1.0000   1.0000   1.0000   1.0221  -0.0022  -0.0000

          k = 0.0833 0.1443 0.0000 ( 20061 PWs)   bands (ev):

   -24.1553 -24.1298 -24.1106 -24.0021 -23.9895 -23.7967 -23.7879 -23.7764
   -23.7627 -23.7058 -12.0302  -5.5504  -4.1098  -3.7365  -1.7445   0.5760

     occupation numbers 
     1.0000   1.0000   1.0000   1.0000   1.0000   1.0000   1.0000   1.0000
     1.0000   1.0000   1.0000   1.0000   1.0000   1.0000  -0.0092  -0.0000

          k = 0.0833 0.1925 0.0000 ( 20087 PWs)   bands (ev):

   -24.1780 -24.1436 -24.1095 -24.0044 -23.9849 -23.7816 -23.7811 -23.7688
   -23.7604 -23.7009 -11.9277  -6.0458  -4.0047  -3.9263  -1.4242   0.6331

     occupation numbers 
     1.0000   1.0000   1.0000   1.0000   1.0000   1.0000   1.0000   1.0000
     1.0000   1.0000   1.0000   1.0000   1.0000   1.0000  -0.0000  -0.0000

          k = 0.0833 0.2406 0.0000 ( 20121 PWs)   bands (ev):

   -24.2011 -24.1593 -24.1074 -24.0071 -23.9792 -23.7880 -23.7673 -23.7578
   -23.7503 -23.6914 -11.7970  -6.5474  -4.1231  -3.8713  -1.2197   0.9077

     occupation numbers 
     1.0000   1.0000   1.0000   1.0000   1.0000   1.0000   1.0000   1.0000
     1.0000   1.0000   1.0000   1.0000   1.0000   1.0000  -0.0000  -0.0000

          k = 0.0833 0.2887 0.0000 ( 20106 PWs)   bands (ev):

   -24.2234 -24.1751 -24.1048 -24.0100 -23.9725 -23.7953 -23.7584 -23.7550
   -23.7326 -23.6771 -11.6393  -7.0409  -4.3114  -3.7115  -1.1430   0.5234

     occupation numbers 
     1.0000   1.0000   1.0000   1.0000   1.0000   1.0000   1.0000   1.0000
     1.0000   1.0000   1.0000   1.0000   1.0000   1.0000  -0.0000  -0.0000

          k = 0.0833 0.3368 0.0000 ( 20114 PWs)   bands (ev):

   -24.2436 -24.1898 -24.1021 -24.0127 -23.9653 -23.8032 -23.7543 -23.7523
   -23.7159 -23.6602 -11.4565  -7.5166  -4.4812  -3.5278  -1.1502   0.1352

     occupation numbers 
     1.0000   1.0000   1.0000   1.0000   1.0000   1.0000   1.0000   1.0000
     1.0000   1.0000   1.0000   1.0000   1.0000   1.0000  -0.0000  -0.0000

          k = 0.0833 0.3849 0.0000 ( 20126 PWs)   bands (ev):

   -24.2610 -24.2028 -24.0995 -24.0152 -23.9580 -23.8113 -23.7530 -23.7498
   -23.7010 -23.6436 -11.2527  -7.9655  -4.6262  -3.3246  -1.1941  -0.2443

     occupation numbers 
     1.0000   1.0000   1.0000   1.0000   1.0000   1.0000   1.0000   1.0000
     1.0000   1.0000   1.0000   1.0000   1.0000   1.0000  -0.0000  -0.0000

          k = 0.0833 0.4330 0.0000 ( 20149 PWs)   bands (ev):

   -24.2751 -24.2133 -24.0973 -24.0174 -23.9509 -23.8189 -23.7530 -23.7477
   -23.6886 -23.6292 -11.0353  -8.3766  -4.7422  -3.1103  -1.2460  -0.6011

     occupation numbers 
     1.0000   1.0000   1.0000   1.0000   1.0000   1.0000   1.0000   1.0000
     1.0000   1.0000   1.0000   1.0000   1.0000   1.0001  -0.0000  -0.0000

          k = 0.0833 0.4811 0.0000 ( 20151 PWs)   bands (ev):

   -24.2854 -24.2211 -24.0955 -24.0190 -23.9449 -23.8254 -23.7534 -23.7461
   -23.6794 -23.6183 -10.8206  -8.7313  -4.8267  -2.9011  -1.2903  -0.9146

     occupation numbers 
     1.0000   1.0000   1.0000   1.0000   1.0000   1.0000   1.0000   1.0000
     1.0000   1.0000   1.0000   1.0000   1.0000   1.0028  -0.0000  -0.0000

          k = 0.0833 0.5292 0.0000 ( 20157 PWs)   bands (ev):

   -24.2917 -24.2259 -24.0944 -24.0200 -23.9407 -23.8298 -23.7539 -23.7451
   -23.6738 -23.6114 -10.6444  -8.9920  -4.8780  -2.7317  -1.3194  -1.1477

     occupation numbers 
     1.0000   1.0000   1.0000   1.0000   1.0000   1.0000   1.0000   1.0000
     1.0000   1.0000   1.0000   1.0000   1.0000   1.0198  -0.0000  -0.0000

          k = 0.0833 0.5774 0.0000 ( 20154 PWs)   bands (ev):

   -24.2939 -24.2275 -24.0940 -24.0203 -23.9393 -23.8314 -23.7540 -23.7448
   -23.6719 -23.6091 -10.5712  -9.0936  -4.8952  -2.6620  -1.3294  -1.2388

     occupation numbers 
     1.0000   1.0000   1.0000   1.0000   1.0000   1.0000   1.0000   1.0000
     1.0000   1.0000   1.0000   1.0000   1.0000   1.0312  -0.0000  -0.0000

          k = 0.1250 0.2165 0.0000 ( 20099 PWs)   bands (ev):

   -24.2016 -24.1523 -24.1101 -24.0071 -23.9795 -23.7876 -23.7665 -23.7579
   -23.7553 -23.6914 -11.8114  -6.4879  -4.1465  -3.8859  -1.1086   0.6519

     occupation numbers 
     1.0000   1.0000   1.0000   1.0000   1.0000   1.0000   1.0000   1.0000
     1.0000   1.0000   1.0000   1.0000   1.0000   1.0000  -0.0000  -0.0000

          k = 0.1250 0.2646 0.0000 ( 20119 PWs)   bands (ev):

   -24.2249 -24.1632 -24.1093 -24.0100 -23.9730 -23.7947 -23.7550 -23.7545
   -23.7438 -23.6765 -11.6673  -6.9411  -4.3681  -3.7398  -0.8781   0.6006

     occupation numbers 
     1.0000   1.0000   1.0000   1.0000   1.0000   1.0000   1.0000   1.0000
     1.0000   1.0000   1.0000   1.0000   1.0000   1.0000  -0.0000  -0.0000

          k = 0.1250 0.3127 0.0000 ( 20122 PWs)   bands (ev):

   -24.2466 -24.1746 -24.1075 -24.0129 -23.9657 -23.8027 -23.7521 -23.7495
   -23.7304 -23.6583 -11.4971  -7.3915  -4.5733  -3.5682  -0.7742   0.2363

     occupation numbers 
     1.0000   1.0000   1.0000   1.0000   1.0000   1.0000   1.0000   1.0000
     1.0000   1.0000   1.0000   1.0000   1.0000   1.0000  -0.0000  -0.0000

          k = 0.1250 0.3608 0.0000 ( 20112 PWs)   bands (ev):

   -24.2658 -24.1855 -24.1054 -24.0157 -23.9579 -23.8111 -23.7494 -23.7485
   -23.7168 -23.6399 -11.3034  -7.8284  -4.7523  -3.3746  -0.7635  -0.1297

     occupation numbers 
     1.0000   1.0000   1.0000   1.0000   1.0000   1.0000   1.0000   1.0000
     1.0000   1.0000   1.0000   1.0000   1.0000   1.0000  -0.0000  -0.0000

          k = 0.1250 0.4090 0.0000 ( 20146 PWs)   bands (ev):

   -24.2819 -24.1950 -24.1032 -24.0182 -23.9500 -23.8196 -23.7490 -23.7470
   -23.7048 -23.6234 -11.0911  -8.2409  -4.8996  -3.1644  -0.7940  -0.4850

     occupation numbers 
     1.0000   1.0000   1.0000   1.0000   1.0000   1.0000   1.0000   1.0000
     1.0000   1.0000   1.0000   1.0000   1.0000   1.0000  -0.0000  -0.0000

          k = 0.1250 0.4571 0.0000 ( 20145 PWs)   bands (ev):

   -24.2944 -24.2025 -24.1014 -24.0202 -23.9427 -23.8273 -23.7499 -23.7451
   -23.6954 -23.6101 -10.8708  -8.6147  -5.0119  -2.9485  -0.8336  -0.8138

     occupation numbers 
     1.0000   1.0000   1.0000   1.0000   1.0000   1.0000   1.0000   1.0000
     1.0000   1.0000   1.0000   1.0000   1.0000   1.0013  -0.0000  -0.0000

          k = 0.1250 0.5052 0.0000 ( 20141 PWs)   bands (ev):

   -24.3029 -24.2077 -24.1000 -24.0216 -23.9369 -23.8334 -23.7507 -23.7437
   -23.6888 -23.6009 -10.6659  -8.9234  -5.0876  -2.7502  -1.0893  -0.8661

     occupation numbers 
     1.0000   1.0000   1.0000   1.0000   1.0000   1.0000   1.0000   1.0000
     1.0000   1.0000   1.0000   1.0000   1.0000   1.0168  -0.0000  -0.0000

          k = 0.1250 0.5533 0.0000 ( 20145 PWs)   bands (ev):

   -24.3072 -24.2104 -24.0993 -24.0223 -23.9336 -23.8369 -23.7512 -23.7430
   -23.6855 -23.5961 -10.5279  -9.1136  -5.1257  -2.6183  -1.2604  -0.8839

     occupation numbers 
     1.0000   1.0000   1.0000   1.0000   1.0000   1.0000   1.0000   1.0000
     1.0000   1.0000   1.0000   1.0000   1.0000   1.0353  -0.0000  -0.0000

          k = 0.1667 0.2887 0.0000 ( 20113 PWs)   bands (ev):

   -24.2476 -24.1685 -24.1103 -24.0130 -23.9658 -23.8025 -23.7521 -23.7418
   -23.7416 -23.6576 -11.5107  -7.3461  -4.6115  -3.5818  -0.5675   0.2724

     occupation numbers 
     1.0000   1.0000   1.0000   1.0000   1.0000   1.0000   1.0000   1.0000
     1.0000   1.0000   1.0000   1.0000   1.0000   1.0000  -0.0000  -0.0000

          k = 0.1667 0.3368 0.0000 ( 20110 PWs)   bands (ev):

   -24.2683 -24.1747 -24.1102 -24.0161 -23.9576 -23.8112 -23.7491 -23.7420
   -23.7293 -23.6379 -11.3289  -7.7514  -4.8327  -3.3997  -0.3751  -0.0664

     occupation numbers 
     1.0000   1.0000   1.0000   1.0000   1.0000   1.0000   1.0000   1.0000
     1.0000   1.0000   1.0000   1.0000   1.0000   1.0000  -0.0000  -0.0000

          k = 0.1667 0.3849 0.0000 ( 20115 PWs)   bands (ev):

   -24.2862 -24.1810 -24.1094 -24.0188 -23.9491 -23.8203 -23.7465 -23.7433
   -23.7184 -23.6197 -11.1252  -8.1466  -5.0207  -3.1975  -0.4054  -0.3102

     occupation numbers 
     1.0000   1.0000   1.0000   1.0000   1.0000   1.0000   1.0000   1.0000
     1.0000   1.0000   1.0000   1.0000   1.0000   1.0000  -0.0000  -0.0000

          k = 0.1667 0.4330 0.0000 ( 20139 PWs)   bands (ev):

   -24.3006 -24.1866 -24.1083 -24.0212 -23.9406 -23.8293 -23.7449 -23.7442
   -23.7093 -23.6044 -10.9063  -8.5199  -5.1699  -2.9820  -0.7327  -0.3118

     occupation numbers 
     1.0000   1.0000   1.0000   1.0000   1.0000   1.0000   1.0000   1.0000
     1.0000   1.0000   1.0000   1.0000   1.0000   1.0008  -0.0000  -0.0000

          k = 0.1667 0.4811 0.0000 ( 20145 PWs)   bands (ev):

   -24.3112 -24.1909 -24.1072 -24.0230 -23.9330 -23.8372 -23.7463 -23.7424
   -23.7026 -23.5929 -10.6862  -8.8529  -5.2777  -2.7679  -1.0297  -0.3330

     occupation numbers 
     1.0000   1.0000   1.0000   1.0000   1.0000   1.0000   1.0000   1.0000
     1.0000   1.0000   1.0000   1.0000   1.0000   1.0142  -0.0000  -0.0000

          k = 0.1667 0.5292 0.0000 ( 20147 PWs)   bands (ev):

   -24.3177 -24.1937 -24.1064 -24.0241 -23.9275 -23.8429 -23.7473 -23.7414
   -23.6984 -23.5857 -10.4997  -9.1084  -5.3427  -2.5885  -1.2600  -0.3516

     occupation numbers 
     1.0000   1.0000   1.0000   1.0000   1.0000   1.0000   1.0000   1.0000
     1.0000   1.0000   1.0000   1.0000   1.0000   1.0344  -0.0000  -0.0000

          k = 0.1667 0.5774 0.0000 ( 20135 PWs)   bands (ev):

   -24.3198 -24.1946 -24.1062 -24.0245 -23.9255 -23.8450 -23.7476 -23.7410
   -23.6970 -23.5833 -10.4190  -9.2122  -5.3644  -2.5117  -1.3539  -0.3587

     occupation numbers 
     1.0000   1.0000   1.0000   1.0000   1.0000   1.0000   1.0000   1.0000
     1.0000   1.0000   1.0000   1.0000   1.0000   1.0047  -0.0000  -0.0000

          k = 0.2083 0.3608 0.0000 ( 20119 PWs)   bands (ev):

   -24.2876 -24.1754 -24.1123 -24.0191 -23.9487 -23.8206 -23.7462 -23.7389
   -23.7255 -23.6185 -11.1367  -8.1125  -5.0658  -3.2086  -0.3769  -0.0355

     occupation numbers 
     1.0000   1.0000   1.0000   1.0000   1.0000   1.0000   1.0000   1.0000
     1.0000   1.0000   1.0000   1.0000   1.0000   1.0000  -0.0000  -0.0000

          k = 0.2083 0.4090 0.0000 ( 20133 PWs)   bands (ev):

   -24.3037 -24.1765 -24.1136 -24.0218 -23.9393 -23.8304 -23.7436 -23.7396
   -23.7194 -23.6014 -10.9246  -8.4660  -5.2599  -2.9993  -0.6871   0.1537

     occupation numbers 
     1.0000   1.0000   1.0000   1.0000   1.0000   1.0000   1.0000   1.0000
     1.0000   1.0000   1.0000   1.0000   1.0000   1.0006  -0.0000  -0.0000

          k = 0.2083 0.4571 0.0000 ( 20137 PWs)   bands (ev):

   -24.3162 -24.1778 -24.1142 -24.0240 -23.9301 -23.8400 -23.7415 -23.7411
   -23.7138 -23.5879 -10.7005  -8.7998  -5.4084  -2.7804  -0.9850   0.2142

     occupation numbers 
     1.0000   1.0000   1.0000   1.0000   1.0000   1.0000   1.0000   1.0000
     1.0000   1.0000   1.0000   1.0000   1.0000   1.0125  -0.0000  -0.0000

          k = 0.2083 0.5052 0.0000 ( 20163 PWs)   bands (ev):

   -24.3248 -24.1789 -24.1145 -24.0256 -23.9221 -23.8482 -23.7424 -23.7401
   -23.7097 -23.5785 -10.4842  -9.0913  -5.5085  -2.5712  -1.2486   0.2226

     occupation numbers 
     1.0000   1.0000   1.0000   1.0000   1.0000   1.0000   1.0000   1.0000
     1.0000   1.0000   1.0000   1.0000   1.0000   1.0317  -0.0000  -0.0000

          k = 0.2083 0.5533 0.0000 ( 20157 PWs)   bands (ev):

   -24.3291 -24.1795 -24.1145 -24.0264 -23.9172 -23.8532 -23.7431 -23.7393
   -23.7076 -23.5737 -10.3286  -9.2851  -5.5588  -2.4224  -1.4251   0.2199

     occupation numbers 
     1.0000   1.0000   1.0000   1.0000   1.0000   1.0000   1.0000   1.0000
     1.0000   1.0000   1.0000   1.0000   1.0000   0.8892  -0.0000  -0.0000

          k = 0.2500 0.4330 0.0000 ( 20149 PWs)   bands (ev):

   -24.3179 -24.1724 -24.1176 -24.0244 -23.9290 -23.8411 -23.7412 -23.7379
   -23.7190 -23.5862 -10.7057  -8.7801  -5.4550  -2.7848  -0.9685   0.5362

     occupation numbers 
     1.0000   1.0000   1.0000   1.0000   1.0000   1.0000   1.0000   1.0000
     1.0000   1.0000   1.0000   1.0000   1.0000   1.0120  -0.0000  -0.0000

          k = 0.2500 0.4811 0.0000 ( 20153 PWs)   bands (ev):

   -24.3284 -24.1690 -24.1209 -24.0263 -23.9188 -23.8515 -23.7394 -23.7377
   -23.7177 -23.5748 -10.4778  -9.0776  -5.5981  -2.5636  -1.2387   0.7388

     occupation numbers 
     1.0000   1.0000   1.0000   1.0000   1.0000   1.0000   1.0000   1.0000
     1.0000   1.0000   1.0000   1.0000   1.0000   1.0299  -0.0000  -0.0000

          k = 0.2500 0.5292 0.0000 ( 20133 PWs)   bands (ev):

   -24.3348 -24.1668 -24.1231 -24.0276 -23.9103 -23.8601 -23.7382 -23.7381
   -23.7165 -23.5677 -10.2680  -9.3301  -5.6851  -2.3618  -1.4704   0.8052

     occupation numbers 
     1.0000   1.0000   1.0000   1.0000   1.0000   1.0000   1.0000   1.0000
     1.0000   1.0000   1.0000   1.0000   1.0000   0.7514  -0.0001  -0.0000

          k = 0.2500 0.5774 0.0000 ( 20123 PWs)   bands (ev):

   -24.3369 -24.1660 -24.1239 -24.0280 -23.9067 -23.8638 -23.7383 -23.7378
   -23.7160 -23.5654 -10.1646  -9.4478  -5.7143  -2.2634  -1.5789   0.8189

     occupation numbers 
     1.0000   1.0000   1.0000   1.0000   1.0000   1.0000   1.0000   1.0000
     1.0000   1.0000   1.0000   1.0000   1.0000   0.4592  -0.0009  -0.0000

          k = 0.2917 0.5052 0.0000 ( 20137 PWs)   bands (ev):

   -24.3367 -24.1609 -24.1275 -24.0280 -23.9075 -23.8630 -23.7378 -23.7351
   -23.7209 -23.5657 -10.2466  -9.3454  -5.7289  -2.3402  -1.4861   1.1699

     occupation numbers 
     1.0000   1.0000   1.0000   1.0000   1.0000   1.0000   1.0000   1.0000
     1.0000   1.0000   1.0000   1.0000   1.0000   0.6922  -0.0002  -0.0000

          k = 0.2917 0.5533 0.0000 ( 20132 PWs)   bands (ev):

   -24.3409 -24.1549 -24.1328 -24.0289 -23.8979 -23.8725 -23.7370 -23.7335
   -23.7227 -23.5611 -10.0410  -9.5691  -5.7954  -2.1435  -1.6947   1.3776

     occupation numbers 
     1.0000   1.0000   1.0000   1.0000   1.0000   1.0000   1.0000   1.0000
     1.0000   1.0000   1.0000   1.0000   1.0000   0.1361  -0.0050  -0.0000

          k = 0.3333 0.5774 0.0000 ( 20133 PWs)   bands (ev):

   -24.3430 -24.1435 -24.1435 -24.0293 -23.8853 -23.8853 -23.7366 -23.7284
   -23.7284 -23.5589  -9.8069  -9.8069  -5.8329  -1.9200  -1.9200   1.8727

     occupation numbers 
     1.0000   1.0000   1.0000   1.0000   1.0000   1.0000   1.0000   1.0000
     1.0000   1.0000   1.0000   1.0000   1.0000  -0.0345  -0.0345  -0.0000

     the Fermi energy is    -2.2765 ev

!    total energy              =    -326.39268484 Ry
     estimated scf accuracy    <       0.00000002 Ry
     smearing contrib. (-TS)   =       0.00026408 Ry
     internal energy E=F+TS    =    -326.39294892 Ry

     The total energy is F=E-TS. E is the sum of the following terms:
     one-electron contribution =    -881.89293026 Ry
     hartree contribution      =     448.09078215 Ry
     xc contribution           =     -95.07146134 Ry
     ewald contribution        =     202.48066054 Ry

     convergence has been achieved in   7 iterations

     Writing all to output data dir ../tmp/stanene.save/

     init_run     :     77.50s CPU    139.19s WALL (       1 calls)
     electrons    :   1508.44s CPU   2520.04s WALL (       1 calls)

     Called by init_run:
     wfcinit      :     60.42s CPU    106.99s WALL (       1 calls)
     wfcinit:atom :      0.15s CPU      0.18s WALL (      61 calls)
     wfcinit:wfcr :     59.36s CPU    105.73s WALL (      61 calls)
     potinit      :      0.64s CPU      0.93s WALL (       1 calls)
     hinit0       :      0.55s CPU      0.73s WALL (       1 calls)

     Called by electrons:
     c_bands      :   1272.87s CPU   2135.38s WALL (       7 calls)
     sum_band     :    178.78s CPU    281.19s WALL (       7 calls)
     v_of_rho     :      4.12s CPU      5.20s WALL (       8 calls)
     v_h          :      0.11s CPU      0.12s WALL (       8 calls)
     v_xc         :      4.00s CPU      5.07s WALL (       8 calls)
     newd         :     63.09s CPU    122.46s WALL (       8 calls)
     mix_rho      :      4.02s CPU      4.69s WALL (       7 calls)

     Called by c_bands:
     init_us_2    :      1.73s CPU      1.98s WALL (     915 calls)
     init_us_2:cp :      1.72s CPU      1.97s WALL (     915 calls)
     cegterg      :   1228.39s CPU   2090.99s WALL (     427 calls)

     Called by sum_band:
     sum_band:wei :      0.01s CPU      0.01s WALL (       7 calls)
     sum_band:loo :    134.65s CPU    228.10s WALL (       7 calls)
     sum_band:buf :      1.19s CPU      1.34s WALL (     427 calls)
     sum_band:ini :      0.59s CPU      0.71s WALL (     427 calls)
     sum_band:cal :    109.10s CPU    198.04s WALL (     427 calls)
     sum_band:bec :      0.02s CPU      0.03s WALL (     427 calls)
     addusdens    :     30.27s CPU     34.23s WALL (       7 calls)
                                        0.00s GPU  (       7 calls)
     addusd:skk   :      0.44s CPU      3.32s WALL (       7 calls)
                                        0.00s GPU  (       7 calls)

     Called by *egterg:
     cdiaghg      :     52.73s CPU    109.94s WALL (    1664 calls)
     cegterg:over :    307.25s CPU    494.21s WALL (    1237 calls)
     cegterg:upda :     37.33s CPU     77.09s WALL (    1237 calls)
     cegterg:last :     49.17s CPU    102.35s WALL (    1038 calls)
     h_psi        :    583.85s CPU   1016.15s WALL (    1725 calls)
     s_psi        :     26.05s CPU     53.33s WALL (    1725 calls)
     g_psi        :      0.40s CPU      0.45s WALL (    1237 calls)

     Called by h_psi:
     h_psi:calbec :    402.42s CPU    759.25s WALL (    1725 calls)
     vloc_psi     :    129.17s CPU    129.42s WALL (    1725 calls)
     add_vuspsi   :     51.22s CPU    125.59s WALL (    1725 calls)

     General routines
     calbec       :    511.51s CPU    957.18s WALL (    2152 calls)
     fft          :      2.70s CPU      3.34s WALL (     102 calls)
     ffts         :      0.37s CPU      0.37s WALL (      15 calls)
     fftw         :    135.12s CPU    136.01s WALL (   50824 calls)
     interpolate  :      0.40s CPU      0.42s WALL (       8 calls)

     Parallel routines

     PWSCF        :  26m27.90s CPU  44m25.04s WALL


   This run was terminated on:  17:33: 9  23Jun2024            

=------------------------------------------------------------------------------=
   JOB DONE.
=------------------------------------------------------------------------------=
