
     Program PWSCF v.7.2 starts on 22Jun2024 at  7:37:36 

     This program is part of the open-source Quantum ESPRESSO suite
     for quantum simulation of materials; please cite
         "P. Giannozzi et al., J. Phys.:Condens. Matter 21 395502 (2009);
         "P. Giannozzi et al., J. Phys.:Condens. Matter 29 465901 (2017);
         "P. Giannozzi et al., J. Chem. Phys. 152 154105 (2020);
          URL http://www.quantum-espresso.org", 
     in publications or presentations arising from this work. More details at
     http://www.quantum-espresso.org/quote

     Parallel version (MPI), running on     6 processors

     MPI processes distributed on     1 nodes
     5725 MiB available memory on the printing compute node when the environment starts

     Waiting for input...
     Reading input from standard input

     Current dimensions of program PWSCF are:
     Max number of different atomic species (ntypx) = 10
     Max number of k-points (npk) =  40000
     Max angular momentum in pseudopotentials (lmaxx) =  4

     R & G space division:  proc/nbgrp/npool/nimage =       6
     Subspace diagonalization in iterative solution of the eigenvalue problem:
     a serial algorithm will be used


     Parallelization info
     --------------------
     sticks:   dense  smooth     PW     G-vecs:    dense   smooth      PW
     Min         431     214     61                75773    26776    4007
     Max         432     215     62                75788    26799    4017
     Sum        2587    1285    367               454685   160699   24069

     Using Slab Decomposition



     bravais-lattice index     =            4
     lattice parameter (alat)  =       8.8439  a.u.
     unit-cell volume          =    2560.0529 (a.u.)^3
     number of atoms/cell      =            2
     number of atomic types    =            1
     number of electrons       =        28.00
     number of Kohn-Sham states=           16
     kinetic-energy cutoff     =      60.0000  Ry
     charge density cutoff     =     480.0000  Ry
     scf convergence threshold =      1.0E-07
     mixing beta               =       0.7000
     number of iterations used =            8  plain     mixing
     Exchange-correlation= SLA  PW   PSX  PSC
                           (   1   4  10   8   0   0   0)

     celldm(1)=   8.843918  celldm(2)=   0.000000  celldm(3)=   4.273504
     celldm(4)=   0.000000  celldm(5)=   0.000000  celldm(6)=   0.000000

     crystal axes: (cart. coord. in units of alat)
               a(1) = (   1.000000   0.000000   0.000000 )  
               a(2) = (  -0.500000   0.866025   0.000000 )  
               a(3) = (   0.000000   0.000000   4.273504 )  

     reciprocal axes: (cart. coord. in units 2 pi/alat)
               b(1) = (  1.000000  0.577350 -0.000000 )  
               b(2) = (  0.000000  1.154701  0.000000 )  
               b(3) = (  0.000000 -0.000000  0.234000 )  


     PseudoPot. # 1 for Sn read from file:
     ../pseudo/sn_pbesol_v1.4.uspp.F.UPF
     MD5 check sum: 463fec1d5456f1e96ec1bfcad4b7b038
     Pseudo is Ultrasoft + core correction, Zval = 14.0
     Generated by new atomic code, or converted to UPF format
     Using radial grid of  891 points,  6 beta functions with: 
                l(1) =   0
                l(2) =   0
                l(3) =   1
                l(4) =   1
                l(5) =   2
                l(6) =   2
     Q(r) pseudized with  8 coefficients,  rinner =    1.350   1.350   1.350
                                                       1.350   1.350

     atomic species   valence    mass     pseudopotential
        Sn            14.00   118.71000     Sn( 1.00)

     24 Sym. Ops., with inversion, found


                                    s                        frac. trans.

      isym =  1     identity                                     

 cryst.   s( 1) = (     1          0          0      )
                  (     0          1          0      )
                  (     0          0          1      )

 cart.    s( 1) = (  1.0000000  0.0000000  0.0000000 )
                  (  0.0000000  1.0000000  0.0000000 )
                  (  0.0000000  0.0000000  1.0000000 )


      isym =  2     180 deg rotation - cart. axis [0,0,1]        

 cryst.   s( 2) = (    -1          0          0      )
                  (     0         -1          0      )
                  (     0          0          1      )

 cart.    s( 2) = ( -1.0000000  0.0000000  0.0000000 )
                  (  0.0000000 -1.0000000  0.0000000 )
                  (  0.0000000  0.0000000  1.0000000 )


      isym =  3     180 deg rotation - cart. axis [0,1,0]        

 cryst.   s( 3) = (    -1          0          0      )
                  (     1          1          0      )
                  (     0          0         -1      )

 cart.    s( 3) = ( -1.0000000  0.0000000  0.0000000 )
                  (  0.0000000  1.0000000  0.0000000 )
                  (  0.0000000  0.0000000 -1.0000000 )


      isym =  4     180 deg rotation - cart. axis [1,0,0]        

 cryst.   s( 4) = (     1          0          0      )
                  (    -1         -1          0      )
                  (     0          0         -1      )

 cart.    s( 4) = (  1.0000000  0.0000000  0.0000000 )
                  (  0.0000000 -1.0000000  0.0000000 )
                  (  0.0000000  0.0000000 -1.0000000 )


      isym =  5      60 deg rotation - cryst. axis [0,0,1]       

 cryst.   s( 5) = (     1          1          0      )
                  (    -1          0          0      )
                  (     0          0          1      )

 cart.    s( 5) = (  0.5000000 -0.8660254  0.0000000 )
                  (  0.8660254  0.5000000  0.0000000 )
                  (  0.0000000  0.0000000  1.0000000 )


      isym =  6      60 deg rotation - cryst. axis [0,0,-1]      

 cryst.   s( 6) = (     0         -1          0      )
                  (     1          1          0      )
                  (     0          0          1      )

 cart.    s( 6) = (  0.5000000  0.8660254  0.0000000 )
                  ( -0.8660254  0.5000000  0.0000000 )
                  (  0.0000000  0.0000000  1.0000000 )


      isym =  7     120 deg rotation - cryst. axis [0,0,1]       

 cryst.   s( 7) = (     0          1          0      )
                  (    -1         -1          0      )
                  (     0          0          1      )

 cart.    s( 7) = ( -0.5000000 -0.8660254  0.0000000 )
                  (  0.8660254 -0.5000000  0.0000000 )
                  (  0.0000000  0.0000000  1.0000000 )


      isym =  8     120 deg rotation - cryst. axis [0,0,-1]      

 cryst.   s( 8) = (    -1         -1          0      )
                  (     1          0          0      )
                  (     0          0          1      )

 cart.    s( 8) = ( -0.5000000  0.8660254  0.0000000 )
                  ( -0.8660254 -0.5000000  0.0000000 )
                  (  0.0000000  0.0000000  1.0000000 )


      isym =  9     180 deg rotation - cryst. axis [1,-1,0]      

 cryst.   s( 9) = (     0         -1          0      )
                  (    -1          0          0      )
                  (     0          0         -1      )

 cart.    s( 9) = (  0.5000000 -0.8660254  0.0000000 )
                  ( -0.8660254 -0.5000000  0.0000000 )
                  (  0.0000000  0.0000000 -1.0000000 )


      isym = 10     180 deg rotation - cryst. axis [2,1,0]       

 cryst.   s(10) = (     1          1          0      )
                  (     0         -1          0      )
                  (     0          0         -1      )

 cart.    s(10) = (  0.5000000  0.8660254  0.0000000 )
                  (  0.8660254 -0.5000000  0.0000000 )
                  (  0.0000000  0.0000000 -1.0000000 )


      isym = 11     180 deg rotation - cryst. axis [0,1,0]       

 cryst.   s(11) = (    -1         -1          0      )
                  (     0          1          0      )
                  (     0          0         -1      )

 cart.    s(11) = ( -0.5000000 -0.8660254  0.0000000 )
                  ( -0.8660254  0.5000000  0.0000000 )
                  (  0.0000000  0.0000000 -1.0000000 )


      isym = 12     180 deg rotation - cryst. axis [1,1,0]       

 cryst.   s(12) = (     0          1          0      )
                  (     1          0          0      )
                  (     0          0         -1      )

 cart.    s(12) = ( -0.5000000  0.8660254  0.0000000 )
                  (  0.8660254  0.5000000  0.0000000 )
                  (  0.0000000  0.0000000 -1.0000000 )


      isym = 13     inversion                                    

 cryst.   s(13) = (    -1          0          0      )
                  (     0         -1          0      )
                  (     0          0         -1      )

 cart.    s(13) = ( -1.0000000  0.0000000  0.0000000 )
                  (  0.0000000 -1.0000000  0.0000000 )
                  (  0.0000000  0.0000000 -1.0000000 )


      isym = 14     inv. 180 deg rotation - cart. axis [0,0,1]   

 cryst.   s(14) = (     1          0          0      )
                  (     0          1          0      )
                  (     0          0         -1      )

 cart.    s(14) = (  1.0000000  0.0000000  0.0000000 )
                  (  0.0000000  1.0000000  0.0000000 )
                  (  0.0000000  0.0000000 -1.0000000 )


      isym = 15     inv. 180 deg rotation - cart. axis [0,1,0]   

 cryst.   s(15) = (     1          0          0      )
                  (    -1         -1          0      )
                  (     0          0          1      )

 cart.    s(15) = (  1.0000000  0.0000000  0.0000000 )
                  (  0.0000000 -1.0000000  0.0000000 )
                  (  0.0000000  0.0000000  1.0000000 )


      isym = 16     inv. 180 deg rotation - cart. axis [1,0,0]   

 cryst.   s(16) = (    -1          0          0      )
                  (     1          1          0      )
                  (     0          0          1      )

 cart.    s(16) = ( -1.0000000  0.0000000  0.0000000 )
                  (  0.0000000  1.0000000  0.0000000 )
                  (  0.0000000  0.0000000  1.0000000 )


      isym = 17     inv.  60 deg rotation - cryst. axis [0,0,1]  

 cryst.   s(17) = (    -1         -1          0      )
                  (     1          0          0      )
                  (     0          0         -1      )

 cart.    s(17) = ( -0.5000000  0.8660254  0.0000000 )
                  ( -0.8660254 -0.5000000  0.0000000 )
                  (  0.0000000  0.0000000 -1.0000000 )


      isym = 18     inv.  60 deg rotation - cryst. axis [0,0,-1] 

 cryst.   s(18) = (     0          1          0      )
                  (    -1         -1          0      )
                  (     0          0         -1      )

 cart.    s(18) = ( -0.5000000 -0.8660254  0.0000000 )
                  (  0.8660254 -0.5000000  0.0000000 )
                  (  0.0000000  0.0000000 -1.0000000 )


      isym = 19     inv. 120 deg rotation - cryst. axis [0,0,1]  

 cryst.   s(19) = (     0         -1          0      )
                  (     1          1          0      )
                  (     0          0         -1      )

 cart.    s(19) = (  0.5000000  0.8660254  0.0000000 )
                  ( -0.8660254  0.5000000  0.0000000 )
                  (  0.0000000  0.0000000 -1.0000000 )


      isym = 20     inv. 120 deg rotation - cryst. axis [0,0,-1] 

 cryst.   s(20) = (     1          1          0      )
                  (    -1          0          0      )
                  (     0          0         -1      )

 cart.    s(20) = (  0.5000000 -0.8660254  0.0000000 )
                  (  0.8660254  0.5000000  0.0000000 )
                  (  0.0000000  0.0000000 -1.0000000 )


      isym = 21     inv. 180 deg rotation - cryst. axis [1,-1,0] 

 cryst.   s(21) = (     0          1          0      )
                  (     1          0          0      )
                  (     0          0          1      )

 cart.    s(21) = ( -0.5000000  0.8660254  0.0000000 )
                  (  0.8660254  0.5000000  0.0000000 )
                  (  0.0000000  0.0000000  1.0000000 )


      isym = 22     inv. 180 deg rotation - cryst. axis [2,1,0]  

 cryst.   s(22) = (    -1         -1          0      )
                  (     0          1          0      )
                  (     0          0          1      )

 cart.    s(22) = ( -0.5000000 -0.8660254  0.0000000 )
                  ( -0.8660254  0.5000000  0.0000000 )
                  (  0.0000000  0.0000000  1.0000000 )


      isym = 23     inv. 180 deg rotation - cryst. axis [0,1,0]  

 cryst.   s(23) = (     1          1          0      )
                  (     0         -1          0      )
                  (     0          0          1      )

 cart.    s(23) = (  0.5000000  0.8660254  0.0000000 )
                  (  0.8660254 -0.5000000  0.0000000 )
                  (  0.0000000  0.0000000  1.0000000 )


      isym = 24     inv. 180 deg rotation - cryst. axis [1,1,0]  

 cryst.   s(24) = (     0         -1          0      )
                  (    -1          0          0      )
                  (     0          0          1      )

 cart.    s(24) = (  0.5000000 -0.8660254  0.0000000 )
                  ( -0.8660254 -0.5000000  0.0000000 )
                  (  0.0000000  0.0000000  1.0000000 )


     point group D_6h(6/mmm)
     there are 12 classes
     the character table:

       E     2C6   2C3   C2    3C2'  3C2'' i     2S3   2S6   s_h   3s_d  3s_v 
A_1g   1.00  1.00  1.00  1.00  1.00  1.00  1.00  1.00  1.00  1.00  1.00  1.00
A_2g   1.00  1.00  1.00  1.00 -1.00 -1.00  1.00  1.00  1.00  1.00 -1.00 -1.00
B_1g   1.00 -1.00  1.00 -1.00  1.00 -1.00  1.00 -1.00  1.00 -1.00  1.00 -1.00
B_2g   1.00 -1.00  1.00 -1.00 -1.00  1.00  1.00 -1.00  1.00 -1.00 -1.00  1.00
E_1g   2.00  1.00 -1.00 -2.00  0.00  0.00  2.00  1.00 -1.00 -2.00  0.00  0.00
E_2g   2.00 -1.00 -1.00  2.00  0.00  0.00  2.00 -1.00 -1.00  2.00  0.00  0.00
A_1u   1.00  1.00  1.00  1.00  1.00  1.00 -1.00 -1.00 -1.00 -1.00 -1.00 -1.00
A_2u   1.00  1.00  1.00  1.00 -1.00 -1.00 -1.00 -1.00 -1.00 -1.00  1.00  1.00
B_1u   1.00 -1.00  1.00 -1.00  1.00 -1.00 -1.00  1.00 -1.00  1.00 -1.00  1.00
B_2u   1.00 -1.00  1.00 -1.00 -1.00  1.00 -1.00  1.00 -1.00  1.00  1.00 -1.00
E_1u   2.00  1.00 -1.00 -2.00  0.00  0.00 -2.00 -1.00  1.00  2.00  0.00  0.00
E_2u   2.00 -1.00 -1.00  2.00  0.00  0.00 -2.00  1.00  1.00 -2.00  0.00  0.00

     the symmetry operations in each class and the name of the first element:

     E        1
          identity                                               
     2C6      5    6
           60 deg rotation - cryst. axis [0,0,1]                 
     2C3      7    8
          120 deg rotation - cryst. axis [0,0,1]                 
     C2       2
          180 deg rotation - cart. axis [0,0,1]                  
     3C2'     4   12   11
          180 deg rotation - cart. axis [1,0,0]                  
     3C2''    3    9   10
          180 deg rotation - cart. axis [0,1,0]                  
     i       13
          inversion                                              
     2S3     17   18
          inv.  60 deg rotation - cryst. axis [0,0,1]            
     2S6     19   20
          inv. 120 deg rotation - cryst. axis [0,0,1]            
     s_h     14
          inv. 180 deg rotation - cart. axis [0,0,1]             
     3s_d    16   24   23
          inv. 180 deg rotation - cart. axis [1,0,0]             
     3s_v    15   21   22
          inv. 180 deg rotation - cart. axis [0,1,0]             

   Cartesian axes

     site n.     atom                  positions (alat units)
         1           Sn  tau(   1) = (   0.0000000   0.5773503   2.1367521  )
         2           Sn  tau(   2) = (   0.5000000   0.2886751   2.1367521  )

   Crystallographic axes

     site n.     atom                  positions (cryst. coord.)
         1           Sn  tau(   1) = (  0.3333333  0.6666667  0.5000000  )
         2           Sn  tau(   2) = (  0.6666667  0.3333333  0.5000000  )

     number of k points=    61  Methfessel-Paxton smearing, width (Ry)=  0.0200
                       cart. coord. in units 2pi/alat
        k(    1) = (   0.0000000   0.0000000   0.0000000), wk =   0.0034722
        k(    2) = (   0.0000000   0.0481125   0.0000000), wk =   0.0208333
        k(    3) = (   0.0000000   0.0962250   0.0000000), wk =   0.0208333
        k(    4) = (   0.0000000   0.1443376   0.0000000), wk =   0.0208333
        k(    5) = (   0.0000000   0.1924501   0.0000000), wk =   0.0208333
        k(    6) = (   0.0000000   0.2405626   0.0000000), wk =   0.0208333
        k(    7) = (   0.0000000   0.2886751   0.0000000), wk =   0.0208333
        k(    8) = (   0.0000000   0.3367877   0.0000000), wk =   0.0208333
        k(    9) = (   0.0000000   0.3849002   0.0000000), wk =   0.0208333
        k(   10) = (   0.0000000   0.4330127   0.0000000), wk =   0.0208333
        k(   11) = (   0.0000000   0.4811252   0.0000000), wk =   0.0208333
        k(   12) = (   0.0000000   0.5292377   0.0000000), wk =   0.0208333
        k(   13) = (   0.0000000  -0.5773503   0.0000000), wk =   0.0104167
        k(   14) = (   0.0416667   0.0721688   0.0000000), wk =   0.0208333
        k(   15) = (   0.0416667   0.1202813   0.0000000), wk =   0.0416667
        k(   16) = (   0.0416667   0.1683938   0.0000000), wk =   0.0416667
        k(   17) = (   0.0416667   0.2165064   0.0000000), wk =   0.0416667
        k(   18) = (   0.0416667   0.2646189   0.0000000), wk =   0.0416667
        k(   19) = (   0.0416667   0.3127314   0.0000000), wk =   0.0416667
        k(   20) = (   0.0416667   0.3608439   0.0000000), wk =   0.0416667
        k(   21) = (   0.0416667   0.4089564   0.0000000), wk =   0.0416667
        k(   22) = (   0.0416667   0.4570690   0.0000000), wk =   0.0416667
        k(   23) = (   0.0416667   0.5051815   0.0000000), wk =   0.0416667
        k(   24) = (   0.0416667   0.5532940   0.0000000), wk =   0.0416667
        k(   25) = (   0.0833333   0.1443376   0.0000000), wk =   0.0208333
        k(   26) = (   0.0833333   0.1924501   0.0000000), wk =   0.0416667
        k(   27) = (   0.0833333   0.2405626   0.0000000), wk =   0.0416667
        k(   28) = (   0.0833333   0.2886751   0.0000000), wk =   0.0416667
        k(   29) = (   0.0833333   0.3367877   0.0000000), wk =   0.0416667
        k(   30) = (   0.0833333   0.3849002   0.0000000), wk =   0.0416667
        k(   31) = (   0.0833333   0.4330127   0.0000000), wk =   0.0416667
        k(   32) = (   0.0833333   0.4811252   0.0000000), wk =   0.0416667
        k(   33) = (   0.0833333   0.5292377   0.0000000), wk =   0.0416667
        k(   34) = (   0.0833333   0.5773503   0.0000000), wk =   0.0208333
        k(   35) = (   0.1250000   0.2165064   0.0000000), wk =   0.0208333
        k(   36) = (   0.1250000   0.2646189   0.0000000), wk =   0.0416667
        k(   37) = (   0.1250000   0.3127314   0.0000000), wk =   0.0416667
        k(   38) = (   0.1250000   0.3608439   0.0000000), wk =   0.0416667
        k(   39) = (   0.1250000   0.4089564   0.0000000), wk =   0.0416667
        k(   40) = (   0.1250000   0.4570690   0.0000000), wk =   0.0416667
        k(   41) = (   0.1250000   0.5051815   0.0000000), wk =   0.0416667
        k(   42) = (   0.1250000   0.5532940   0.0000000), wk =   0.0416667
        k(   43) = (   0.1666667   0.2886751   0.0000000), wk =   0.0208333
        k(   44) = (   0.1666667   0.3367877   0.0000000), wk =   0.0416667
        k(   45) = (   0.1666667   0.3849002   0.0000000), wk =   0.0416667
        k(   46) = (   0.1666667   0.4330127   0.0000000), wk =   0.0416667
        k(   47) = (   0.1666667   0.4811252   0.0000000), wk =   0.0416667
        k(   48) = (   0.1666667   0.5292377   0.0000000), wk =   0.0416667
        k(   49) = (   0.1666667   0.5773503   0.0000000), wk =   0.0208333
        k(   50) = (   0.2083333   0.3608439   0.0000000), wk =   0.0208333
        k(   51) = (   0.2083333   0.4089564   0.0000000), wk =   0.0416667
        k(   52) = (   0.2083333   0.4570690   0.0000000), wk =   0.0416667
        k(   53) = (   0.2083333   0.5051815   0.0000000), wk =   0.0416667
        k(   54) = (   0.2083333   0.5532940   0.0000000), wk =   0.0416667
        k(   55) = (   0.2500000   0.4330127   0.0000000), wk =   0.0208333
        k(   56) = (   0.2500000   0.4811252   0.0000000), wk =   0.0416667
        k(   57) = (   0.2500000   0.5292377   0.0000000), wk =   0.0416667
        k(   58) = (   0.2500000   0.5773503   0.0000000), wk =   0.0208333
        k(   59) = (   0.2916667   0.5051815   0.0000000), wk =   0.0208333
        k(   60) = (   0.2916667   0.5532940   0.0000000), wk =   0.0416667
        k(   61) = (   0.3333333   0.5773503   0.0000000), wk =   0.0069444

                       cryst. coord.
        k(    1) = (   0.0000000   0.0000000   0.0000000), wk =   0.0034722
        k(    2) = (   0.0000000   0.0416667   0.0000000), wk =   0.0208333
        k(    3) = (   0.0000000   0.0833333   0.0000000), wk =   0.0208333
        k(    4) = (   0.0000000   0.1250000   0.0000000), wk =   0.0208333
        k(    5) = (   0.0000000   0.1666667   0.0000000), wk =   0.0208333
        k(    6) = (   0.0000000   0.2083333   0.0000000), wk =   0.0208333
        k(    7) = (   0.0000000   0.2500000   0.0000000), wk =   0.0208333
        k(    8) = (   0.0000000   0.2916667   0.0000000), wk =   0.0208333
        k(    9) = (   0.0000000   0.3333333   0.0000000), wk =   0.0208333
        k(   10) = (   0.0000000   0.3750000   0.0000000), wk =   0.0208333
        k(   11) = (   0.0000000   0.4166667   0.0000000), wk =   0.0208333
        k(   12) = (   0.0000000   0.4583333   0.0000000), wk =   0.0208333
        k(   13) = (   0.0000000  -0.5000000   0.0000000), wk =   0.0104167
        k(   14) = (   0.0416667   0.0416667   0.0000000), wk =   0.0208333
        k(   15) = (   0.0416667   0.0833333   0.0000000), wk =   0.0416667
        k(   16) = (   0.0416667   0.1250000   0.0000000), wk =   0.0416667
        k(   17) = (   0.0416667   0.1666667   0.0000000), wk =   0.0416667
        k(   18) = (   0.0416667   0.2083333   0.0000000), wk =   0.0416667
        k(   19) = (   0.0416667   0.2500000   0.0000000), wk =   0.0416667
        k(   20) = (   0.0416667   0.2916667   0.0000000), wk =   0.0416667
        k(   21) = (   0.0416667   0.3333333   0.0000000), wk =   0.0416667
        k(   22) = (   0.0416667   0.3750000   0.0000000), wk =   0.0416667
        k(   23) = (   0.0416667   0.4166667   0.0000000), wk =   0.0416667
        k(   24) = (   0.0416667   0.4583333   0.0000000), wk =   0.0416667
        k(   25) = (   0.0833333   0.0833333   0.0000000), wk =   0.0208333
        k(   26) = (   0.0833333   0.1250000   0.0000000), wk =   0.0416667
        k(   27) = (   0.0833333   0.1666667   0.0000000), wk =   0.0416667
        k(   28) = (   0.0833333   0.2083333   0.0000000), wk =   0.0416667
        k(   29) = (   0.0833333   0.2500000   0.0000000), wk =   0.0416667
        k(   30) = (   0.0833333   0.2916667   0.0000000), wk =   0.0416667
        k(   31) = (   0.0833333   0.3333333   0.0000000), wk =   0.0416667
        k(   32) = (   0.0833333   0.3750000   0.0000000), wk =   0.0416667
        k(   33) = (   0.0833333   0.4166667   0.0000000), wk =   0.0416667
        k(   34) = (   0.0833333   0.4583333   0.0000000), wk =   0.0208333
        k(   35) = (   0.1250000   0.1250000   0.0000000), wk =   0.0208333
        k(   36) = (   0.1250000   0.1666667   0.0000000), wk =   0.0416667
        k(   37) = (   0.1250000   0.2083333   0.0000000), wk =   0.0416667
        k(   38) = (   0.1250000   0.2500000   0.0000000), wk =   0.0416667
        k(   39) = (   0.1250000   0.2916667   0.0000000), wk =   0.0416667
        k(   40) = (   0.1250000   0.3333333   0.0000000), wk =   0.0416667
        k(   41) = (   0.1250000   0.3750000   0.0000000), wk =   0.0416667
        k(   42) = (   0.1250000   0.4166667   0.0000000), wk =   0.0416667
        k(   43) = (   0.1666667   0.1666667   0.0000000), wk =   0.0208333
        k(   44) = (   0.1666667   0.2083333   0.0000000), wk =   0.0416667
        k(   45) = (   0.1666667   0.2500000   0.0000000), wk =   0.0416667
        k(   46) = (   0.1666667   0.2916667   0.0000000), wk =   0.0416667
        k(   47) = (   0.1666667   0.3333333   0.0000000), wk =   0.0416667
        k(   48) = (   0.1666667   0.3750000   0.0000000), wk =   0.0416667
        k(   49) = (   0.1666667   0.4166667   0.0000000), wk =   0.0208333
        k(   50) = (   0.2083333   0.2083333   0.0000000), wk =   0.0208333
        k(   51) = (   0.2083333   0.2500000   0.0000000), wk =   0.0416667
        k(   52) = (   0.2083333   0.2916667   0.0000000), wk =   0.0416667
        k(   53) = (   0.2083333   0.3333333   0.0000000), wk =   0.0416667
        k(   54) = (   0.2083333   0.3750000   0.0000000), wk =   0.0416667
        k(   55) = (   0.2500000   0.2500000   0.0000000), wk =   0.0208333
        k(   56) = (   0.2500000   0.2916667   0.0000000), wk =   0.0416667
        k(   57) = (   0.2500000   0.3333333   0.0000000), wk =   0.0416667
        k(   58) = (   0.2500000   0.3750000   0.0000000), wk =   0.0208333
        k(   59) = (   0.2916667   0.2916667   0.0000000), wk =   0.0208333
        k(   60) = (   0.2916667   0.3333333   0.0000000), wk =   0.0416667
        k(   61) = (   0.3333333   0.3333333   0.0000000), wk =   0.0069444

     Dense  grid:   454685 G-vectors     FFT dimensions: (  64,  64, 270)

     Smooth grid:   160699 G-vectors     FFT dimensions: (  45,  45, 192)

     Dynamical RAM for                 wfc:       0.82 MB

     Dynamical RAM for     wfc (w. buffer):      50.68 MB

     Dynamical RAM for           str. fact:       1.16 MB

     Dynamical RAM for           local pot:       0.00 MB

     Dynamical RAM for          nlocal pot:       1.84 MB

     Dynamical RAM for                qrad:       1.76 MB

     Dynamical RAM for          rho,v,vnew:       7.69 MB

     Dynamical RAM for               rhoin:       2.56 MB

     Dynamical RAM for            rho*nmix:      18.50 MB

     Dynamical RAM for           G-vectors:       4.54 MB

     Dynamical RAM for          h,s,v(r/c):       0.05 MB

     Dynamical RAM for          <psi|beta>:       0.01 MB

     Dynamical RAM for                 psi:       1.63 MB

     Dynamical RAM for                hpsi:       1.63 MB

     Dynamical RAM for                spsi:       1.63 MB

     Dynamical RAM for      wfcinit/wfcrot:       1.85 MB

     Dynamical RAM for           addusdens:     217.40 MB

     Estimated static dynamical RAM per process >      79.57 MB

     Estimated max dynamical RAM per process >     315.47 MB

     Estimated total dynamical RAM >       1.85 GB

     Initial potential from superposition of free atoms

     starting charge      25.9999, renormalised to      28.0000

     negative rho (up, down):  6.174E-04 0.000E+00
     Starting wfcs are   18 randomized atomic wfcs

     total cpu time spent up to now is      101.7 secs

     Self-consistent Calculation

     iteration #  1     ecut=    60.00 Ry     beta= 0.70
     Davidson diagonalization with overlap

---- Real-time Memory Report at c_bands before calling an iterative solver
           306 MiB given to the printing process from OS
             0 MiB allocation reported by mallinfo(arena+hblkhd)
          5038 MiB available memory on the node where the printing process lives
------------------
     ethr =  1.00E-02,  avg # of iterations =  3.0

     negative rho (up, down):  7.521E-05 0.000E+00

     total cpu time spent up to now is      433.5 secs

     total energy              =    -317.08848355 Ry
     estimated scf accuracy    <       2.12711652 Ry

     iteration #  2     ecut=    60.00 Ry     beta= 0.70
     Davidson diagonalization with overlap

---- Real-time Memory Report at c_bands before calling an iterative solver
           366 MiB given to the printing process from OS
             0 MiB allocation reported by mallinfo(arena+hblkhd)
          4839 MiB available memory on the node where the printing process lives
------------------
     ethr =  7.60E-03,  avg # of iterations =  2.0

     negative rho (up, down):  4.621E-05 0.000E+00

     total cpu time spent up to now is      675.0 secs

     total energy              =    -317.72688130 Ry
     estimated scf accuracy    <       0.15109844 Ry

     iteration #  3     ecut=    60.00 Ry     beta= 0.70
     Davidson diagonalization with overlap

---- Real-time Memory Report at c_bands before calling an iterative solver
           368 MiB given to the printing process from OS
             0 MiB allocation reported by mallinfo(arena+hblkhd)
          4839 MiB available memory on the node where the printing process lives
------------------
     ethr =  5.40E-04,  avg # of iterations =  2.0

     negative rho (up, down):  5.630E-05 0.000E+00

     total cpu time spent up to now is      901.9 secs

     total energy              =    -317.73385218 Ry
     estimated scf accuracy    <       0.00813275 Ry

     iteration #  4     ecut=    60.00 Ry     beta= 0.70
     Davidson diagonalization with overlap

---- Real-time Memory Report at c_bands before calling an iterative solver
           369 MiB given to the printing process from OS
             0 MiB allocation reported by mallinfo(arena+hblkhd)
          4850 MiB available memory on the node where the printing process lives
------------------
     ethr =  2.90E-05,  avg # of iterations =  3.1

     negative rho (up, down):  5.427E-05 0.000E+00

     total cpu time spent up to now is     1218.1 secs

     total energy              =    -317.73762031 Ry
     estimated scf accuracy    <       0.00218957 Ry

     iteration #  5     ecut=    60.00 Ry     beta= 0.70
     Davidson diagonalization with overlap

---- Real-time Memory Report at c_bands before calling an iterative solver
           369 MiB given to the printing process from OS
             0 MiB allocation reported by mallinfo(arena+hblkhd)
          4836 MiB available memory on the node where the printing process lives
------------------
     ethr =  7.82E-06,  avg # of iterations =  2.3

     negative rho (up, down):  5.397E-05 0.000E+00

     total cpu time spent up to now is     1480.6 secs

     total energy              =    -317.73801269 Ry
     estimated scf accuracy    <       0.00007593 Ry

     iteration #  6     ecut=    60.00 Ry     beta= 0.70
     Davidson diagonalization with overlap

---- Real-time Memory Report at c_bands before calling an iterative solver
           370 MiB given to the printing process from OS
             0 MiB allocation reported by mallinfo(arena+hblkhd)
          4820 MiB available memory on the node where the printing process lives
------------------
     c_bands:  1 eigenvalues not converged
     ethr =  2.71E-07,  avg # of iterations =  5.3

     negative rho (up, down):  5.400E-05 0.000E+00

     total cpu time spent up to now is     1910.3 secs

     total energy              =    -317.73806978 Ry
     estimated scf accuracy    <       0.00002780 Ry

     iteration #  7     ecut=    60.00 Ry     beta= 0.70
     Davidson diagonalization with overlap

---- Real-time Memory Report at c_bands before calling an iterative solver
           371 MiB given to the printing process from OS
             0 MiB allocation reported by mallinfo(arena+hblkhd)
          4823 MiB available memory on the node where the printing process lives
------------------
     ethr =  9.93E-08,  avg # of iterations =  3.2

     negative rho (up, down):  5.384E-05 0.000E+00

     total cpu time spent up to now is     2239.0 secs

     total energy              =    -317.73807966 Ry
     estimated scf accuracy    <       0.00000216 Ry

     iteration #  8     ecut=    60.00 Ry     beta= 0.70
     Davidson diagonalization with overlap

---- Real-time Memory Report at c_bands before calling an iterative solver
           372 MiB given to the printing process from OS
             0 MiB allocation reported by mallinfo(arena+hblkhd)
          4812 MiB available memory on the node where the printing process lives
------------------
     ethr =  7.72E-09,  avg # of iterations =  3.4

     negative rho (up, down):  5.379E-05 0.000E+00

     total cpu time spent up to now is     2579.5 secs

     total energy              =    -317.73807958 Ry
     estimated scf accuracy    <       0.00000052 Ry

     iteration #  9     ecut=    60.00 Ry     beta= 0.70
     Davidson diagonalization with overlap

---- Real-time Memory Report at c_bands before calling an iterative solver
           372 MiB given to the printing process from OS
             0 MiB allocation reported by mallinfo(arena+hblkhd)
          4809 MiB available memory on the node where the printing process lives
------------------
     ethr =  1.87E-09,  avg # of iterations =  3.7

     negative rho (up, down):  5.380E-05 0.000E+00

     total cpu time spent up to now is     2906.8 secs

     End of self-consistent calculation

          k = 0.0000 0.0000 0.0000 ( 20001 PWs)   bands (ev):

   -24.1499 -24.1386 -24.1386 -24.0312 -24.0312 -23.8730 -23.8730 -23.7975
   -23.7975 -23.7383 -12.3399  -4.3930  -3.8303  -3.4560  -3.4560   0.5500

     occupation numbers 
     1.0000   1.0000   1.0000   1.0000   1.0000   1.0000   1.0000   1.0000
     1.0000   1.0000   1.0000   1.0000   1.0000   1.0000   1.0000  -0.0000

          k = 0.0000 0.0481 0.0000 ( 20007 PWs)   bands (ev):

   -24.1511 -24.1432 -24.1416 -24.0316 -24.0305 -23.8687 -23.8679 -23.7983
   -23.7972 -23.7381 -12.3251  -4.3776  -4.2596  -3.4899  -3.0454   0.5299

     occupation numbers 
     1.0000   1.0000   1.0000   1.0000   1.0000   1.0000   1.0000   1.0000
     1.0000   1.0000   1.0000   1.0000   1.0000   1.0000   1.0013  -0.0000

          k = 0.0000 0.0962 0.0000 ( 19993 PWs)   bands (ev):

   -24.1598 -24.1559 -24.1444 -24.0327 -24.0285 -23.8569 -23.8539 -23.8007
   -23.7960 -23.7376 -12.2806  -4.8357  -4.3315  -3.5846  -2.5358   0.5008

     occupation numbers 
     1.0000   1.0000   1.0000   1.0000   1.0000   1.0000   1.0000   1.0000
     1.0000   1.0000   1.0000   1.0000   1.0000   1.0000   0.9182  -0.0000

          k = 0.0000 0.1443 0.0000 ( 20039 PWs)   bands (ev):

   -24.1767 -24.1740 -24.1436 -24.0345 -24.0251 -23.8407 -23.8336 -23.8045
   -23.7943 -23.7363 -12.2068  -5.4153  -4.2552  -3.7231  -2.1034   0.5330

     occupation numbers 
     1.0000   1.0000   1.0000   1.0000   1.0000   1.0000   1.0000   1.0000
     1.0000   1.0000   1.0000   1.0000   1.0000   1.0000  -0.0244  -0.0000

          k = 0.0000 0.1925 0.0000 ( 20061 PWs)   bands (ev):

   -24.1972 -24.1947 -24.1418 -24.0368 -24.0206 -23.8233 -23.8101 -23.8097
   -23.7920 -23.7333 -12.1040  -5.9846  -4.1493  -3.8860  -1.8064   1.3124

     occupation numbers 
     1.0000   1.0000   1.0000   1.0000   1.0000   1.0000   1.0000   1.0000
     1.0000   1.0000   1.0000   1.0000   1.0000   1.0000  -0.0060  -0.0000

          k = 0.0000 0.2406 0.0000 ( 20045 PWs)   bands (ev):

   -24.2187 -24.2160 -24.1393 -24.0394 -24.0151 -23.8160 -23.8080 -23.7894
   -23.7855 -23.7275 -11.9728  -6.5367  -4.0565  -4.0150  -1.6654   0.9213

     occupation numbers 
     1.0000   1.0000   1.0000   1.0000   1.0000   1.0000   1.0000   1.0000
     1.0000   1.0000   1.0000   1.0000   1.0000   1.0000  -0.0007  -0.0000

          k = 0.0000 0.2887 0.0000 ( 20055 PWs)   bands (ev):

   -24.2395 -24.2365 -24.1366 -24.0421 -24.0087 -23.8231 -23.7970 -23.7867
   -23.7615 -23.7182 -11.8144  -7.0665  -4.2218  -3.8541  -1.6426   0.5148

     occupation numbers 
     1.0000   1.0000   1.0000   1.0000   1.0000   1.0000   1.0000   1.0000
     1.0000   1.0000   1.0000   1.0000   1.0000   1.0000  -0.0005  -0.0000

          k = 0.0000 0.3368 0.0000 ( 20085 PWs)   bands (ev):

   -24.2586 -24.2551 -24.1338 -24.0448 -24.0018 -23.8308 -23.7907 -23.7840
   -23.7394 -23.7060 -11.6311  -7.5687  -4.3729  -3.6693  -1.6821   0.1081

     occupation numbers 
     1.0000   1.0000   1.0000   1.0000   1.0000   1.0000   1.0000   1.0000
     1.0000   1.0000   1.0000   1.0000   1.0000   1.0000  -0.0010  -0.0000

          k = 0.0000 0.3849 0.0000 ( 20131 PWs)   bands (ev):

   -24.2751 -24.2711 -24.1312 -24.0473 -23.9948 -23.8386 -23.7877 -23.7816
   -23.7202 -23.6930 -11.4269  -8.0368  -4.5033  -3.4653  -1.7441  -0.2859

     occupation numbers 
     1.0000   1.0000   1.0000   1.0000   1.0000   1.0000   1.0000   1.0000
     1.0000   1.0000   1.0000   1.0000   1.0000   1.0000  -0.0026  -0.0000

          k = 0.0000 0.4330 0.0000 ( 20143 PWs)   bands (ev):

   -24.2885 -24.2840 -24.1289 -24.0493 -23.9881 -23.8459 -23.7867 -23.7795
   -23.7044 -23.6813 -11.2095  -8.4613  -4.6086  -3.2506  -1.8062  -0.6532

     occupation numbers 
     1.0000   1.0000   1.0000   1.0000   1.0000   1.0000   1.0000   1.0000
     1.0000   1.0000   1.0000   1.0000   1.0000   1.0000  -0.0060  -0.0000

          k = 0.0000 0.4811 0.0000 ( 20129 PWs)   bands (ev):

   -24.2983 -24.2935 -24.1271 -24.0509 -23.9826 -23.8519 -23.7865 -23.7780
   -23.6928 -23.6720 -10.9958  -8.8238  -4.6857  -3.0421  -1.8565  -0.9730

     occupation numbers 
     1.0000   1.0000   1.0000   1.0000   1.0000   1.0000   1.0000   1.0000
     1.0000   1.0000   1.0000   1.0000   1.0000   1.0014  -0.0109  -0.0000

          k = 0.0000 0.5292 0.0000 ( 20120 PWs)   bands (ev):

   -24.3043 -24.2992 -24.1260 -24.0519 -23.9788 -23.8560 -23.7865 -23.7770
   -23.6857 -23.6662 -10.8219  -9.0875  -4.7328  -2.8747  -1.8887  -1.2081

     occupation numbers 
     1.0000   1.0000   1.0000   1.0000   1.0000   1.0000   1.0000   1.0000
     1.0000   1.0000   1.0000   1.0000   1.0000   1.0129  -0.0151  -0.0000

          k = 0.0000-0.5774 0.0000 ( 20096 PWs)   bands (ev):

   -24.3063 -24.3012 -24.1256 -24.0522 -23.9774 -23.8574 -23.7866 -23.7767
   -23.6832 -23.6642 -10.7502  -9.1892  -4.7485  -2.8065  -1.8997  -1.2991

     occupation numbers 
     1.0000   1.0000   1.0000   1.0000   1.0000   1.0000   1.0000   1.0000
     1.0000   1.0000   1.0000   1.0000   1.0000   1.0235  -0.0168  -0.0000

          k = 0.0417 0.0722 0.0000 ( 20005 PWs)   bands (ev):

   -24.1579 -24.1483 -24.1462 -24.0324 -24.0291 -23.8607 -23.8583 -23.7999
   -23.7964 -23.7378 -12.2954  -4.6791  -4.3468  -3.5580  -2.6636   0.4968

     occupation numbers 
     1.0000   1.0000   1.0000   1.0000   1.0000   1.0000   1.0000   1.0000
     1.0000   1.0000   1.0000   1.0000   1.0000   1.0000   1.0307  -0.0000

          k = 0.0417 0.1203 0.0000 ( 20013 PWs)   bands (ev):

   -24.1744 -24.1610 -24.1459 -24.0339 -24.0264 -23.8468 -23.8413 -23.8030
   -23.7949 -23.7368 -12.2363  -5.2078  -4.2856  -3.6835  -2.2254   0.4737

     occupation numbers 
     1.0000   1.0000   1.0000   1.0000   1.0000   1.0000   1.0000   1.0000
     1.0000   1.0000   1.0000   1.0000   1.0000   1.0000   0.1063  -0.0000

          k = 0.0417 0.1684 0.0000 ( 20052 PWs)   bands (ev):

   -24.1955 -24.1782 -24.1442 -24.0359 -24.0224 -23.8299 -23.8199 -23.8076
   -23.7929 -23.7346 -12.1479  -5.7568  -4.1945  -3.8444  -1.8597   0.5362

     occupation numbers 
     1.0000   1.0000   1.0000   1.0000   1.0000   1.0000   1.0000   1.0000
     1.0000   1.0000   1.0000   1.0000   1.0000   1.0000  -0.0113  -0.0000

          k = 0.0417 0.2165 0.0000 ( 20055 PWs)   bands (ev):

   -24.2182 -24.1972 -24.1419 -24.0384 -24.0173 -23.8134 -23.8134 -23.7968
   -23.7904 -23.7298 -12.0309  -6.3021  -4.0744  -4.0206  -1.6309   1.0909

     occupation numbers 
     1.0000   1.0000   1.0000   1.0000   1.0000   1.0000   1.0000   1.0000
     1.0000   1.0000   1.0000   1.0000   1.0000   1.0000  -0.0004  -0.0000

          k = 0.0417 0.2646 0.0000 ( 20075 PWs)   bands (ev):

   -24.2406 -24.2164 -24.1392 -24.0412 -24.0112 -23.8202 -23.8003 -23.7877
   -23.7739 -23.7213 -11.8860  -6.8329  -4.1967  -3.9266  -1.5439   0.6962

     occupation numbers 
     1.0000   1.0000   1.0000   1.0000   1.0000   1.0000   1.0000   1.0000
     1.0000   1.0000   1.0000   1.0000   1.0000   1.0000  -0.0001  -0.0000

          k = 0.0417 0.3127 0.0000 ( 20077 PWs)   bands (ev):

   -24.2616 -24.2345 -24.1364 -24.0439 -24.0045 -23.8278 -23.7920 -23.7849
   -23.7525 -23.7090 -11.7148  -7.3420  -4.3615  -3.7534  -1.5507   0.2930

     occupation numbers 
     1.0000   1.0000   1.0000   1.0000   1.0000   1.0000   1.0000   1.0000
     1.0000   1.0000   1.0000   1.0000   1.0000   1.0000  -0.0001  -0.0000

          k = 0.0417 0.3608 0.0000 ( 20090 PWs)   bands (ev):

   -24.2802 -24.2507 -24.1337 -24.0466 -23.9973 -23.8357 -23.7879 -23.7823
   -23.7335 -23.6946 -11.5204  -7.8227  -4.5074  -3.5583  -1.6010  -0.1049

     occupation numbers 
     1.0000   1.0000   1.0000   1.0000   1.0000   1.0000   1.0000   1.0000
     1.0000   1.0000   1.0000   1.0000   1.0000   1.0000  -0.0002  -0.0000

          k = 0.0417 0.4090 0.0000 ( 20107 PWs)   bands (ev):

   -24.2958 -24.2643 -24.1312 -24.0489 -23.9903 -23.8434 -23.7862 -23.7800
   -23.7175 -23.6806 -11.3081  -8.2669  -4.6291  -3.3475  -1.6627  -0.4846

     occupation numbers 
     1.0000   1.0000   1.0000   1.0000   1.0000   1.0000   1.0000   1.0000
     1.0000   1.0000   1.0000   1.0000   1.0000   1.0000  -0.0007  -0.0000

          k = 0.0417 0.4571 0.0000 ( 20118 PWs)   bands (ev):

   -24.3079 -24.2748 -24.1291 -24.0507 -23.9840 -23.8502 -23.7858 -23.7782
   -23.7051 -23.6689 -11.0893  -8.6612  -4.7231  -3.1327  -1.7186  -0.8296

     occupation numbers 
     1.0000   1.0000   1.0000   1.0000   1.0000   1.0000   1.0000   1.0000
     1.0000   1.0000   1.0000   1.0000   1.0000   1.0003  -0.0017  -0.0000

          k = 0.0417 0.5052 0.0000 ( 20132 PWs)   bands (ev):

   -24.3161 -24.2820 -24.1276 -24.0520 -23.9791 -23.8555 -23.7859 -23.7769
   -23.6965 -23.6605 -10.8887  -8.9797  -4.7869  -2.9383  -1.7597  -1.1125

     occupation numbers 
     1.0000   1.0000   1.0000   1.0000   1.0000   1.0000   1.0000   1.0000
     1.0000   1.0000   1.0000   1.0000   1.0000   1.0062  -0.0032  -0.0000

          k = 0.0417 0.5533 0.0000 ( 20126 PWs)   bands (ev):

   -24.3202 -24.2857 -24.1268 -24.0527 -23.9764 -23.8584 -23.7860 -23.7763
   -23.6922 -23.6562 -10.7565  -9.1710  -4.8192  -2.8119  -1.7812  -1.2836

     occupation numbers 
     1.0000   1.0000   1.0000   1.0000   1.0000   1.0000   1.0000   1.0000
     1.0000   1.0000   1.0000   1.0000   1.0000   1.0226  -0.0043  -0.0000

          k = 0.0833 0.1443 0.0000 ( 20045 PWs)   bands (ev):

   -24.1953 -24.1702 -24.1468 -24.0357 -24.0230 -23.8323 -23.8235 -23.8069
   -23.7931 -23.7349 -12.1626  -5.6713  -4.2096  -3.8443  -1.8601   0.4459

     occupation numbers 
     1.0000   1.0000   1.0000   1.0000   1.0000   1.0000   1.0000   1.0000
     1.0000   1.0000   1.0000   1.0000   1.0000   1.0000  -0.0113  -0.0000

          k = 0.0833 0.1925 0.0000 ( 20059 PWs)   bands (ev):

   -24.2185 -24.1840 -24.1457 -24.0381 -24.0183 -23.8162 -23.8122 -23.8037
   -23.7908 -23.7305 -12.0600  -6.1674  -4.1041  -4.0361  -1.5413   0.4998

     occupation numbers 
     1.0000   1.0000   1.0000   1.0000   1.0000   1.0000   1.0000   1.0000
     1.0000   1.0000   1.0000   1.0000   1.0000   1.0000  -0.0001  -0.0000

          k = 0.0833 0.2406 0.0000 ( 20083 PWs)   bands (ev):

   -24.2421 -24.1997 -24.1436 -24.0408 -24.0125 -23.8187 -23.8015 -23.7881
   -23.7844 -23.7220 -11.9290  -6.6698  -4.2348  -3.9703  -1.3408   0.8180

     occupation numbers 
     1.0000   1.0000   1.0000   1.0000   1.0000   1.0000   1.0000   1.0000
     1.0000   1.0000   1.0000   1.0000   1.0000   1.0000  -0.0000  -0.0000

          k = 0.0833 0.2887 0.0000 ( 20094 PWs)   bands (ev):

   -24.2648 -24.2156 -24.1411 -24.0437 -24.0058 -23.8262 -23.7913 -23.7852
   -23.7663 -23.7088 -11.7710  -7.1644  -4.4248  -3.8099  -1.2695   0.4336

     occupation numbers 
     1.0000   1.0000   1.0000   1.0000   1.0000   1.0000   1.0000   1.0000
     1.0000   1.0000   1.0000   1.0000   1.0000   1.0000  -0.0000  -0.0000

          k = 0.0833 0.3368 0.0000 ( 20094 PWs)   bands (ev):

   -24.2853 -24.2305 -24.1383 -24.0465 -23.9985 -23.8342 -23.7861 -23.7825
   -23.7495 -23.6926 -11.5878  -7.6411  -4.5959  -3.6255  -1.2816   0.0450

     occupation numbers 
     1.0000   1.0000   1.0000   1.0000   1.0000   1.0000   1.0000   1.0000
     1.0000   1.0000   1.0000   1.0000   1.0000   1.0000  -0.0000  -0.0000

          k = 0.0833 0.3849 0.0000 ( 20088 PWs)   bands (ev):

   -24.3030 -24.2436 -24.1357 -24.0491 -23.9910 -23.8423 -23.7841 -23.7800
   -23.7344 -23.6763 -11.3834  -8.0912  -4.7420  -3.4217  -1.3293  -0.3351

     occupation numbers 
     1.0000   1.0000   1.0000   1.0000   1.0000   1.0000   1.0000   1.0000
     1.0000   1.0000   1.0000   1.0000   1.0000   1.0000  -0.0000  -0.0000

          k = 0.0833 0.4330 0.0000 ( 20111 PWs)   bands (ev):

   -24.3173 -24.2543 -24.1334 -24.0512 -23.9839 -23.8501 -23.7837 -23.7778
   -23.7219 -23.6620 -11.1654  -8.5034  -4.8589  -3.2065  -1.3838  -0.6926

     occupation numbers 
     1.0000   1.0000   1.0000   1.0000   1.0000   1.0000   1.0000   1.0000
     1.0000   1.0000   1.0000   1.0000   1.0000   1.0001  -0.0000  -0.0000

          k = 0.0833 0.4811 0.0000 ( 20119 PWs)   bands (ev):

   -24.3278 -24.2622 -24.1317 -24.0529 -23.9778 -23.8566 -23.7840 -23.7762
   -23.7126 -23.6511 -10.9500  -8.8592  -4.9439  -2.9964  -1.4299  -1.0071

     occupation numbers 
     1.0000   1.0000   1.0000   1.0000   1.0000   1.0000   1.0000   1.0000
     1.0000   1.0000   1.0000   1.0000   1.0000   1.0028  -0.0000  -0.0000

          k = 0.0833 0.5292 0.0000 ( 20109 PWs)   bands (ev):

   -24.3343 -24.2670 -24.1305 -24.0539 -23.9736 -23.8611 -23.7843 -23.7752
   -23.7069 -23.6442 -10.7731  -9.1209  -4.9955  -2.8262  -1.4599  -1.2410

     occupation numbers 
     1.0000   1.0000   1.0000   1.0000   1.0000   1.0000   1.0000   1.0000
     1.0000   1.0000   1.0000   1.0000   1.0000   1.0202  -0.0000  -0.0000

          k = 0.0833 0.5774 0.0000 ( 20128 PWs)   bands (ev):

   -24.3364 -24.2686 -24.1301 -24.0543 -23.9721 -23.8627 -23.7844 -23.7749
   -23.7049 -23.6419 -10.6995  -9.2229  -5.0128  -2.7561  -1.4703  -1.3324

     occupation numbers 
     1.0000   1.0000   1.0000   1.0000   1.0000   1.0000   1.0000   1.0000
     1.0000   1.0000   1.0000   1.0000   1.0000   1.0316  -0.0000  -0.0000

          k = 0.1250 0.2165 0.0000 ( 20077 PWs)   bands (ev):

   -24.2427 -24.1928 -24.1462 -24.0408 -24.0128 -23.8183 -23.8012 -23.7888
   -23.7882 -23.7221 -11.9434  -6.6102  -4.2591  -3.9850  -1.2253   0.8613

     occupation numbers 
     1.0000   1.0000   1.0000   1.0000   1.0000   1.0000   1.0000   1.0000
     1.0000   1.0000   1.0000   1.0000   1.0000   1.0000  -0.0000  -0.0000

          k = 0.1250 0.2646 0.0000 ( 20086 PWs)   bands (ev):

   -24.2664 -24.2036 -24.1455 -24.0437 -24.0062 -23.8255 -23.7884 -23.7853
   -23.7766 -23.7083 -11.7991  -7.0641  -4.4831  -3.8383  -0.9967   0.5109

     occupation numbers 
     1.0000   1.0000   1.0000   1.0000   1.0000   1.0000   1.0000   1.0000
     1.0000   1.0000   1.0000   1.0000   1.0000   1.0000  -0.0000  -0.0000

          k = 0.1250 0.3127 0.0000 ( 20092 PWs)   bands (ev):

   -24.2884 -24.2151 -24.1438 -24.0467 -23.9988 -23.8336 -23.7824 -23.7818
   -23.7634 -23.6908 -11.6285  -7.5153  -4.6904  -3.6662  -0.8974   0.1464

     occupation numbers 
     1.0000   1.0000   1.0000   1.0000   1.0000   1.0000   1.0000   1.0000
     1.0000   1.0000   1.0000   1.0000   1.0000   1.0000  -0.0000  -0.0000

          k = 0.1250 0.3608 0.0000 ( 20080 PWs)   bands (ev):

   -24.3080 -24.2260 -24.1417 -24.0495 -23.9909 -23.8422 -23.7799 -23.7796
   -23.7499 -23.6727 -11.4343  -7.9532  -4.8711  -3.4718  -0.8913  -0.2200

     occupation numbers 
     1.0000   1.0000   1.0000   1.0000   1.0000   1.0000   1.0000   1.0000
     1.0000   1.0000   1.0000   1.0000   1.0000   1.0000  -0.0000  -0.0000

          k = 0.1250 0.4090 0.0000 ( 20114 PWs)   bands (ev):

   -24.3244 -24.2355 -24.1396 -24.0521 -23.9829 -23.8507 -23.7799 -23.7772
   -23.7379 -23.6563 -11.2215  -8.3668  -5.0196  -3.2608  -0.9255  -0.5760

     occupation numbers 
     1.0000   1.0000   1.0000   1.0000   1.0000   1.0000   1.0000   1.0000
     1.0000   1.0000   1.0000   1.0000   1.0000   1.0000  -0.0000  -0.0000

          k = 0.1250 0.4571 0.0000 ( 20113 PWs)   bands (ev):

   -24.3370 -24.2431 -24.1378 -24.0541 -23.9756 -23.8586 -23.7806 -23.7752
   -23.7283 -23.6430 -11.0005  -8.7416  -5.1328  -3.0441  -0.9674  -0.9055

     occupation numbers 
     1.0000   1.0000   1.0000   1.0000   1.0000   1.0000   1.0000   1.0000
     1.0000   1.0000   1.0000   1.0000   1.0000   1.0014  -0.0000  -0.0000

          k = 0.1250 0.5052 0.0000 ( 20113 PWs)   bands (ev):

   -24.3457 -24.2484 -24.1364 -24.0555 -23.9697 -23.8648 -23.7813 -23.7738
   -23.7217 -23.6337 -10.7948  -9.0513  -5.2091  -2.8449  -1.1819  -1.0014

     occupation numbers 
     1.0000   1.0000   1.0000   1.0000   1.0000   1.0000   1.0000   1.0000
     1.0000   1.0000   1.0000   1.0000   1.0000   1.0172  -0.0000  -0.0000

          k = 0.1250 0.5533 0.0000 ( 20114 PWs)   bands (ev):

   -24.3501 -24.2510 -24.1357 -24.0562 -23.9664 -23.8683 -23.7817 -23.7731
   -23.7183 -23.6289 -10.6563  -9.2423  -5.2474  -2.7124  -1.3536  -1.0198

     occupation numbers 
     1.0000   1.0000   1.0000   1.0000   1.0000   1.0000   1.0000   1.0000
     1.0000   1.0000   1.0000   1.0000   1.0000   1.0354  -0.0000  -0.0000

          k = 0.1667 0.2887 0.0000 ( 20089 PWs)   bands (ev):

   -24.2895 -24.2089 -24.1465 -24.0468 -23.9989 -23.8334 -23.7823 -23.7756
   -23.7731 -23.6902 -11.6421  -7.4697  -4.7295  -3.6797  -0.6845   0.1825

     occupation numbers 
     1.0000   1.0000   1.0000   1.0000   1.0000   1.0000   1.0000   1.0000
     1.0000   1.0000   1.0000   1.0000   1.0000   1.0000  -0.0000  -0.0000

          k = 0.1667 0.3368 0.0000 ( 20084 PWs)   bands (ev):

   -24.3105 -24.2151 -24.1466 -24.0499 -23.9907 -23.8422 -23.7793 -23.7734
   -23.7625 -23.6708 -11.4599  -7.8757  -4.9531  -3.4970  -0.4942  -0.1565

     occupation numbers 
     1.0000   1.0000   1.0000   1.0000   1.0000   1.0000   1.0000   1.0000
     1.0000   1.0000   1.0000   1.0000   1.0000   1.0000  -0.0000  -0.0000

          k = 0.1667 0.3849 0.0000 ( 20093 PWs)   bands (ev):

   -24.3287 -24.2213 -24.1459 -24.0527 -23.9820 -23.8515 -23.7766 -23.7743
   -23.7513 -23.6527 -11.2557  -8.2717  -5.1430  -3.2941  -0.4960  -0.4337

     occupation numbers 
     1.0000   1.0000   1.0000   1.0000   1.0000   1.0000   1.0000   1.0000
     1.0000   1.0000   1.0000   1.0000   1.0000   1.0000  -0.0000  -0.0000

          k = 0.1667 0.4330 0.0000 ( 20113 PWs)   bands (ev):

   -24.3433 -24.2268 -24.1449 -24.0551 -23.9734 -23.8605 -23.7757 -23.7743
   -23.7421 -23.6373 -11.0362  -8.6459  -5.2936  -3.0778  -0.8239  -0.4390

     occupation numbers 
     1.0000   1.0000   1.0000   1.0000   1.0000   1.0000   1.0000   1.0000
     1.0000   1.0000   1.0000   1.0000   1.0000   1.0008  -0.0000  -0.0000

          k = 0.1667 0.4811 0.0000 ( 20107 PWs)   bands (ev):

   -24.3541 -24.2312 -24.1439 -24.0570 -23.9657 -23.8686 -23.7770 -23.7725
   -23.7352 -23.6257 -10.8155  -8.9799  -5.4022  -2.8629  -1.1216  -0.4626

     occupation numbers 
     1.0000   1.0000   1.0000   1.0000   1.0000   1.0000   1.0000   1.0000
     1.0000   1.0000   1.0000   1.0000   1.0000   1.0145  -0.0000  -0.0000

          k = 0.1667 0.5292 0.0000 ( 20106 PWs)   bands (ev):

   -24.3607 -24.2339 -24.1432 -24.0581 -23.9602 -23.8743 -23.7779 -23.7714
   -23.7310 -23.6185 -10.6282  -9.2362  -5.4678  -2.6827  -1.3526  -0.4826

     occupation numbers 
     1.0000   1.0000   1.0000   1.0000   1.0000   1.0000   1.0000   1.0000
     1.0000   1.0000   1.0000   1.0000   1.0000   1.0341  -0.0000  -0.0000

          k = 0.1667 0.5774 0.0000 ( 20103 PWs)   bands (ev):

   -24.3629 -24.2348 -24.1429 -24.0585 -23.9581 -23.8765 -23.7782 -23.7710
   -23.7295 -23.6161 -10.5472  -9.3404  -5.4897  -2.6056  -1.4468  -0.4900

     occupation numbers 
     1.0000   1.0000   1.0000   1.0000   1.0000   1.0000   1.0000   1.0000
     1.0000   1.0000   1.0000   1.0000   1.0000   1.0023  -0.0000  -0.0000

          k = 0.2083 0.3608 0.0000 ( 20087 PWs)   bands (ev):

   -24.3301 -24.2156 -24.1488 -24.0530 -23.9816 -23.8518 -23.7764 -23.7696
   -23.7588 -23.6514 -11.2673  -8.2373  -5.1889  -3.3053  -0.4673  -0.1520

     occupation numbers 
     1.0000   1.0000   1.0000   1.0000   1.0000   1.0000   1.0000   1.0000
     1.0000   1.0000   1.0000   1.0000   1.0000   1.0000  -0.0000  -0.0000

          k = 0.2083 0.4090 0.0000 ( 20099 PWs)   bands (ev):

   -24.3465 -24.2166 -24.1504 -24.0557 -23.9721 -23.8618 -23.7737 -23.7703
   -23.7522 -23.6344 -11.0546  -8.5915  -5.3850  -3.0952  -0.7779   0.0350

     occupation numbers 
     1.0000   1.0000   1.0000   1.0000   1.0000   1.0000   1.0000   1.0000
     1.0000   1.0000   1.0000   1.0000   1.0000   1.0006  -0.0000  -0.0000

          k = 0.2083 0.4571 0.0000 ( 20115 PWs)   bands (ev):

   -24.3593 -24.2177 -24.1512 -24.0580 -23.9627 -23.8714 -23.7718 -23.7716
   -23.7463 -23.6208 -10.8299  -8.9261  -5.5350  -2.8755  -1.0764   0.0915

     occupation numbers 
     1.0000   1.0000   1.0000   1.0000   1.0000   1.0000   1.0000   1.0000
     1.0000   1.0000   1.0000   1.0000   1.0000   1.0128  -0.0000  -0.0000

          k = 0.2083 0.5052 0.0000 ( 20122 PWs)   bands (ev):

   -24.3679 -24.2187 -24.1515 -24.0596 -23.9547 -23.8797 -23.7732 -23.7701
   -23.7421 -23.6113 -10.6130  -9.2183  -5.6360  -2.6656  -1.3406   0.0974

     occupation numbers 
     1.0000   1.0000   1.0000   1.0000   1.0000   1.0000   1.0000   1.0000
     1.0000   1.0000   1.0000   1.0000   1.0000   1.0311  -0.0000  -0.0000

          k = 0.2083 0.5533 0.0000 ( 20133 PWs)   bands (ev):

   -24.3723 -24.2193 -24.1517 -24.0604 -23.9497 -23.8849 -23.7739 -23.7693
   -23.7399 -23.6065 -10.4567  -9.4127  -5.6867  -2.5161  -1.5176   0.0934

     occupation numbers 
     1.0000   1.0000   1.0000   1.0000   1.0000   1.0000   1.0000   1.0000
     1.0000   1.0000   1.0000   1.0000   1.0000   0.8829  -0.0000  -0.0000

          k = 0.2500 0.4330 0.0000 ( 20133 PWs)   bands (ev):

   -24.3610 -24.2122 -24.1546 -24.0584 -23.9616 -23.8725 -23.7713 -23.7686
   -23.7516 -23.6191 -10.8351  -8.9060  -5.5822  -2.8800  -1.0596   0.4207

     occupation numbers 
     1.0000   1.0000   1.0000   1.0000   1.0000   1.0000   1.0000   1.0000
     1.0000   1.0000   1.0000   1.0000   1.0000   1.0122  -0.0000  -0.0000

          k = 0.2500 0.4811 0.0000 ( 20115 PWs)   bands (ev):

   -24.3716 -24.2086 -24.1581 -24.0603 -23.9513 -23.8830 -23.7694 -23.7686
   -23.7500 -23.6076 -10.6067  -9.2040  -5.7268  -2.6580  -1.3303   0.6212

     occupation numbers 
     1.0000   1.0000   1.0000   1.0000   1.0000   1.0000   1.0000   1.0000
     1.0000   1.0000   1.0000   1.0000   1.0000   1.0292  -0.0000  -0.0000

          k = 0.2500 0.5292 0.0000 ( 20109 PWs)   bands (ev):

   -24.3781 -24.2062 -24.1606 -24.0616 -23.9427 -23.8918 -23.7690 -23.7682
   -23.7486 -23.6005 -10.3962  -9.4571  -5.8147  -2.4556  -1.5626   0.6846

     occupation numbers 
     1.0000   1.0000   1.0000   1.0000   1.0000   1.0000   1.0000   1.0000
     1.0000   1.0000   1.0000   1.0000   1.0000   0.7426  -0.0001  -0.0000

          k = 0.2500 0.5774 0.0000 ( 20109 PWs)   bands (ev):

   -24.3803 -24.2053 -24.1614 -24.0620 -23.9390 -23.8956 -23.7693 -23.7678
   -23.7480 -23.5981 -10.2924  -9.5752  -5.8442  -2.3568  -1.6714   0.6972

     occupation numbers 
     1.0000   1.0000   1.0000   1.0000   1.0000   1.0000   1.0000   1.0000
     1.0000   1.0000   1.0000   1.0000   1.0000   0.4477  -0.0008  -0.0000

          k = 0.2917 0.5052 0.0000 ( 20105 PWs)   bands (ev):

   -24.3801 -24.2001 -24.1652 -24.0620 -23.9398 -23.8947 -23.7678 -23.7661
   -23.7529 -23.5985 -10.3748  -9.4721  -5.8590  -2.4340  -1.5781   1.0558

     occupation numbers 
     1.0000   1.0000   1.0000   1.0000   1.0000   1.0000   1.0000   1.0000
     1.0000   1.0000   1.0000   1.0000   1.0000   0.6828  -0.0001  -0.0000

          k = 0.2917 0.5533 0.0000 ( 20115 PWs)   bands (ev):

   -24.3843 -24.1938 -24.1707 -24.0629 -23.9302 -23.9044 -23.7670 -23.7646
   -23.7545 -23.5938 -10.1688  -9.6963  -5.9263  -2.2367  -1.7871   1.2622

     occupation numbers 
     1.0000   1.0000   1.0000   1.0000   1.0000   1.0000   1.0000   1.0000
     1.0000   1.0000   1.0000   1.0000   1.0000   0.1282  -0.0047  -0.0000

          k = 0.3333 0.5774 0.0000 ( 20085 PWs)   bands (ev):

   -24.3864 -24.1819 -24.1819 -24.0633 -23.9173 -23.9173 -23.7666 -23.7598
   -23.7598 -23.5916  -9.9343  -9.9343  -5.9643  -2.0127  -2.0127   1.7608

     occupation numbers 
     1.0000   1.0000   1.0000   1.0000   1.0000   1.0000   1.0000   1.0000
     1.0000   1.0000   1.0000   1.0000   1.0000  -0.0341  -0.0341  -0.0000

     the Fermi energy is    -2.3736 ev

!    total energy              =    -317.73807975 Ry
     estimated scf accuracy    <          2.2E-09 Ry
     smearing contrib. (-TS)   =       0.00028791 Ry
     internal energy E=F+TS    =    -317.73836767 Ry

     The total energy is F=E-TS. E is the sum of the following terms:
     one-electron contribution =    -884.78962950 Ry
     hartree contribution      =     449.07699071 Ry
     xc contribution           =     -85.00403302 Ry
     ewald contribution        =     202.97830415 Ry

     convergence has been achieved in   9 iterations

     Writing all to output data dir ../tmp/stanene.save/

     init_run     :     58.17s CPU    101.58s WALL (       1 calls)
     electrons    :   1708.72s CPU   2805.46s WALL (       1 calls)

     Called by init_run:
     wfcinit      :     49.41s CPU     83.94s WALL (       1 calls)
     wfcinit:atom :      0.13s CPU      0.13s WALL (      61 calls)
     wfcinit:wfcr :     48.55s CPU     83.04s WALL (      61 calls)
     potinit      :      0.48s CPU      0.55s WALL (       1 calls)
     hinit0       :      0.48s CPU      0.51s WALL (       1 calls)

     Called by electrons:
     c_bands      :   1449.88s CPU   2396.77s WALL (       9 calls)
     sum_band     :    194.67s CPU    294.27s WALL (       9 calls)
     v_of_rho     :      7.17s CPU      8.81s WALL (      10 calls)
     v_h          :      0.11s CPU      0.13s WALL (      10 calls)
     v_xc         :      7.03s CPU      8.65s WALL (      10 calls)
     newd         :     58.12s CPU    114.24s WALL (      10 calls)
     mix_rho      :      2.91s CPU      3.58s WALL (       9 calls)

     Called by c_bands:
     init_us_2    :      3.55s CPU      4.15s WALL (    1159 calls)
     init_us_2:cp :      3.54s CPU      4.14s WALL (    1159 calls)
     cegterg      :   1395.78s CPU   2340.58s WALL (     549 calls)

     Called by sum_band:
     sum_band:wei :      0.06s CPU      0.11s WALL (       9 calls)
     sum_band:loo :    133.92s CPU    218.42s WALL (       9 calls)
     sum_band:buf :      1.25s CPU      1.44s WALL (     549 calls)
     sum_band:ini :      0.60s CPU      0.77s WALL (     549 calls)
     sum_band:cal :    104.36s CPU    182.65s WALL (     549 calls)
     sum_band:bec :      0.02s CPU      0.03s WALL (     549 calls)
     addusdens    :     44.29s CPU     57.38s WALL (       9 calls)
                                        0.00s GPU  (       9 calls)
     addusd:skk   :      0.24s CPU      0.97s WALL (       9 calls)
                                        0.00s GPU  (       9 calls)

     Called by *egterg:
     cdiaghg      :     66.01s CPU    139.81s WALL (    2259 calls)
     cegterg:over :    355.10s CPU    569.05s WALL (    1710 calls)
     cegterg:upda :     44.12s CPU     90.48s WALL (    1710 calls)
     cegterg:last :     50.42s CPU    107.30s WALL (    1328 calls)
     h_psi        :    640.57s CPU   1081.53s WALL (    2320 calls)
     s_psi        :     25.52s CPU     51.59s WALL (    2320 calls)
     g_psi        :      0.47s CPU      0.53s WALL (    1710 calls)

     Called by h_psi:
     h_psi:calbec :    425.44s CPU    783.49s WALL (    2320 calls)
     vloc_psi     :    151.32s CPU    148.10s WALL (    2320 calls)
     add_vuspsi   :     63.15s CPU    149.01s WALL (    2320 calls)

     General routines
     calbec       :    529.77s CPU    965.81s WALL (    2869 calls)
     fft          :      3.33s CPU      3.63s WALL (     128 calls)
     ffts         :      0.29s CPU      0.30s WALL (      19 calls)
     fftw         :    159.06s CPU    157.68s WALL (   63064 calls)
     interpolate  :      0.48s CPU      0.53s WALL (      10 calls)

     Parallel routines

     PWSCF        :  29m28.90s CPU  48m32.95s WALL


   This run was terminated on:   8:26: 8  22Jun2024            

=------------------------------------------------------------------------------=
   JOB DONE.
=------------------------------------------------------------------------------=
