
     Program PWSCF v.6.7MaX starts on 20Jan2024 at 21:13:52 

     This program is part of the open-source Quantum ESPRESSO suite
     for quantum simulation of materials; please cite
         "P. Giannozzi et al., J. Phys.:Condens. Matter 21 395502 (2009);
         "P. Giannozzi et al., J. Phys.:Condens. Matter 29 465901 (2017);
          URL http://www.quantum-espresso.org", 
     in publications or presentations arising from this work. More details at
     http://www.quantum-espresso.org/quote

     Parallel version (MPI), running on     6 processors

     MPI processes distributed on     1 nodes
     R & G space division:  proc/nbgrp/npool/nimage =       6
     Waiting for input...
     Reading input from standard input

     Current dimensions of program PWSCF are:
     Max number of different atomic species (ntypx) = 10
     Max number of k-points (npk) =  40000
     Max angular momentum in pseudopotentials (lmaxx) =  3

     Subspace diagonalization in iterative solution of the eigenvalue problem:
     one sub-group per band group will be used
     scalapack distributed-memory algorithm (size of sub-group:  2*  2 procs)


     Parallelization info
     --------------------
     sticks:   dense  smooth     PW     G-vecs:    dense   smooth      PW
     Min         214     214     60                26776    26776    3992
     Max         215     215     62                26799    26799    4003
     Sum        1285    1285    367               160699   160699   23973



     bravais-lattice index     =            4
     lattice parameter (alat)  =       8.8439  a.u.
     unit-cell volume          =    2560.0529 (a.u.)^3
     number of atoms/cell      =            2
     number of atomic types    =            1
     number of electrons       =        28.00
     number of Kohn-Sham states=           14
     kinetic-energy cutoff     =      60.0000  Ry
     charge density cutoff     =     240.0000  Ry
     scf convergence threshold =      1.0E-06
     mixing beta               =       0.7000
     number of iterations used =            8  plain     mixing
     Exchange-correlation= SLA  PW   PBE  PBE
                           (   1   4   3   4   0   0   0)

     celldm(1)=   8.843918  celldm(2)=   0.000000  celldm(3)=   4.273504
     celldm(4)=   0.000000  celldm(5)=   0.000000  celldm(6)=   0.000000

     crystal axes: (cart. coord. in units of alat)
               a(1) = (   1.000000   0.000000   0.000000 )  
               a(2) = (  -0.500000   0.866025   0.000000 )  
               a(3) = (   0.000000   0.000000   4.273504 )  

     reciprocal axes: (cart. coord. in units 2 pi/alat)
               b(1) = (  1.000000  0.577350 -0.000000 )  
               b(2) = (  0.000000  1.154701  0.000000 )  
               b(3) = (  0.000000 -0.000000  0.234000 )  


     PseudoPot. # 1 for Sn read from file:
     ../pseudo/Sn_pbe_v1.uspp.F.UPF
     MD5 check sum: 4cf58ce39ec5d5d420df3dd08604eb00
     Pseudo is Ultrasoft + core correction, Zval = 14.0
     Generated by new atomic code, or converted to UPF format
     Using radial grid of  891 points,  6 beta functions with: 
                l(1) =   0
                l(2) =   0
                l(3) =   1
                l(4) =   1
                l(5) =   2
                l(6) =   2
     Q(r) pseudized with  6 coefficients,  rinner =    1.200   1.200   1.200
                                                       1.200   1.200

     atomic species   valence    mass     pseudopotential
        Sn            14.00   118.71000     Sn( 1.00)

     24 Sym. Ops., with inversion, found



   Cartesian axes

     site n.     atom                  positions (alat units)
         1           Sn  tau(   1) = (   0.0000000   0.5773503   2.1367521  )
         2           Sn  tau(   2) = (   0.5000000   0.2886751   2.1367521  )

     number of k points=    56
                       cart. coord. in units 2pi/alat
        k(    1) = (   0.0000000   0.0000000   0.0000000), wk =   0.0037807
        k(    2) = (   0.0000000   0.0502044   0.0000000), wk =   0.0226843
        k(    3) = (   0.0000000   0.1004087   0.0000000), wk =   0.0226843
        k(    4) = (   0.0000000   0.1506131   0.0000000), wk =   0.0226843
        k(    5) = (   0.0000000   0.2008175   0.0000000), wk =   0.0226843
        k(    6) = (   0.0000000   0.2510219   0.0000000), wk =   0.0226843
        k(    7) = (   0.0000000   0.3012262   0.0000000), wk =   0.0226843
        k(    8) = (   0.0000000   0.3514306   0.0000000), wk =   0.0226843
        k(    9) = (   0.0000000   0.4016350   0.0000000), wk =   0.0226843
        k(   10) = (   0.0000000   0.4518393   0.0000000), wk =   0.0226843
        k(   11) = (   0.0000000   0.5020437   0.0000000), wk =   0.0226843
        k(   12) = (   0.0000000   0.5522481   0.0000000), wk =   0.0226843
        k(   13) = (   0.0434783   0.0753066   0.0000000), wk =   0.0226843
        k(   14) = (   0.0434783   0.1255109   0.0000000), wk =   0.0453686
        k(   15) = (   0.0434783   0.1757153   0.0000000), wk =   0.0453686
        k(   16) = (   0.0434783   0.2259197   0.0000000), wk =   0.0453686
        k(   17) = (   0.0434783   0.2761240   0.0000000), wk =   0.0453686
        k(   18) = (   0.0434783   0.3263284   0.0000000), wk =   0.0453686
        k(   19) = (   0.0434783   0.3765328   0.0000000), wk =   0.0453686
        k(   20) = (   0.0434783   0.4267372   0.0000000), wk =   0.0453686
        k(   21) = (   0.0434783   0.4769415   0.0000000), wk =   0.0453686
        k(   22) = (   0.0434783   0.5271459   0.0000000), wk =   0.0453686
        k(   23) = (   0.0434783   0.5773503   0.0000000), wk =   0.0226843
        k(   24) = (   0.0869565   0.1506131   0.0000000), wk =   0.0226843
        k(   25) = (   0.0869565   0.2008175   0.0000000), wk =   0.0453686
        k(   26) = (   0.0869565   0.2510219   0.0000000), wk =   0.0453686
        k(   27) = (   0.0869565   0.3012262   0.0000000), wk =   0.0453686
        k(   28) = (   0.0869565   0.3514306   0.0000000), wk =   0.0453686
        k(   29) = (   0.0869565   0.4016350   0.0000000), wk =   0.0453686
        k(   30) = (   0.0869565   0.4518393   0.0000000), wk =   0.0453686
        k(   31) = (   0.0869565   0.5020437   0.0000000), wk =   0.0453686
        k(   32) = (   0.0869565   0.5522481   0.0000000), wk =   0.0453686
        k(   33) = (   0.1304348   0.2259197   0.0000000), wk =   0.0226843
        k(   34) = (   0.1304348   0.2761240   0.0000000), wk =   0.0453686
        k(   35) = (   0.1304348   0.3263284   0.0000000), wk =   0.0453686
        k(   36) = (   0.1304348   0.3765328   0.0000000), wk =   0.0453686
        k(   37) = (   0.1304348   0.4267372   0.0000000), wk =   0.0453686
        k(   38) = (   0.1304348   0.4769415   0.0000000), wk =   0.0453686
        k(   39) = (   0.1304348   0.5271459   0.0000000), wk =   0.0453686
        k(   40) = (   0.1304348   0.5773503   0.0000000), wk =   0.0226843
        k(   41) = (   0.1739130   0.3012262   0.0000000), wk =   0.0226843
        k(   42) = (   0.1739130   0.3514306   0.0000000), wk =   0.0453686
        k(   43) = (   0.1739130   0.4016350   0.0000000), wk =   0.0453686
        k(   44) = (   0.1739130   0.4518393   0.0000000), wk =   0.0453686
        k(   45) = (   0.1739130   0.5020437   0.0000000), wk =   0.0453686
        k(   46) = (   0.1739130   0.5522481   0.0000000), wk =   0.0453686
        k(   47) = (   0.2173913   0.3765328   0.0000000), wk =   0.0226843
        k(   48) = (   0.2173913   0.4267372   0.0000000), wk =   0.0453686
        k(   49) = (   0.2173913   0.4769415   0.0000000), wk =   0.0453686
        k(   50) = (   0.2173913   0.5271459   0.0000000), wk =   0.0453686
        k(   51) = (   0.2173913   0.5773503   0.0000000), wk =   0.0226843
        k(   52) = (   0.2608696   0.4518393   0.0000000), wk =   0.0226843
        k(   53) = (   0.2608696   0.5020437   0.0000000), wk =   0.0453686
        k(   54) = (   0.2608696   0.5522481   0.0000000), wk =   0.0453686
        k(   55) = (   0.3043478   0.5271459   0.0000000), wk =   0.0226843
        k(   56) = (   0.3043478   0.5773503   0.0000000), wk =   0.0226843

     Dense  grid:   160699 G-vectors     FFT dimensions: (  45,  45, 192)

     Estimated max dynamical RAM per process >     136.28 MB

     Estimated total dynamical RAM >     817.66 MB

     Initial potential from superposition of free atoms

     starting charge   25.99991, renormalised to   28.00000

     negative rho (up, down):  5.017E-03 0.000E+00
     Starting wfcs are   18 randomized atomic wfcs

     total cpu time spent up to now is        4.8 secs

     Self-consistent Calculation

     iteration #  1     ecut=    60.00 Ry     beta= 0.70
     Davidson diagonalization with overlap
     ethr =  1.00E-02,  avg # of iterations =  2.0

     negative rho (up, down):  3.309E-03 0.000E+00

     total cpu time spent up to now is       16.4 secs

     total energy              =    -325.49378610 Ry
     estimated scf accuracy    <       2.41410899 Ry

     iteration #  2     ecut=    60.00 Ry     beta= 0.70
     Davidson diagonalization with overlap
     ethr =  8.62E-03,  avg # of iterations =  2.0

     negative rho (up, down):  3.600E-03 0.000E+00

     total cpu time spent up to now is       28.6 secs

     total energy              =    -326.34786027 Ry
     estimated scf accuracy    <       0.29510386 Ry

     iteration #  3     ecut=    60.00 Ry     beta= 0.70
     Davidson diagonalization with overlap
     ethr =  1.05E-03,  avg # of iterations =  2.1

     negative rho (up, down):  3.776E-03 0.000E+00

     total cpu time spent up to now is       40.2 secs

     total energy              =    -326.38768751 Ry
     estimated scf accuracy    <       0.00613425 Ry

     iteration #  4     ecut=    60.00 Ry     beta= 0.70
     Davidson diagonalization with overlap
     ethr =  2.19E-05,  avg # of iterations =  3.0

     negative rho (up, down):  3.700E-03 0.000E+00

     total cpu time spent up to now is       52.9 secs

     total energy              =    -326.39021049 Ry
     estimated scf accuracy    <       0.00099406 Ry

     iteration #  5     ecut=    60.00 Ry     beta= 0.70
     Davidson diagonalization with overlap
     ethr =  3.55E-06,  avg # of iterations =  2.3

     negative rho (up, down):  3.678E-03 0.000E+00

     total cpu time spent up to now is       64.9 secs

     total energy              =    -326.39046536 Ry
     estimated scf accuracy    <       0.00000922 Ry

     iteration #  6     ecut=    60.00 Ry     beta= 0.70
     Davidson diagonalization with overlap
     ethr =  3.29E-08,  avg # of iterations =  5.1

     negative rho (up, down):  3.681E-03 0.000E+00

     total cpu time spent up to now is       78.2 secs

     End of self-consistent calculation

          k = 0.0000 0.0000 0.0000 ( 20001 PWs)   bands (ev):

   -24.2122 -24.2122 -24.2109 -24.0984 -24.0984 -23.9489 -23.9489 -23.8668
   -23.8668 -23.8020 -12.2954  -4.3460  -3.7613  -3.4367

          k = 0.0000 0.0502 0.0000 ( 20011 PWs)   bands (ev):

   -24.2172 -24.2169 -24.2108 -24.0988 -24.0977 -23.9441 -23.9434 -23.8677
   -23.8664 -23.8019 -12.2793  -4.3293  -4.2337  -3.4733

          k = 0.0000 0.1004 0.0000 ( 19985 PWs)   bands (ev):

   -24.2308 -24.2304 -24.2098 -24.1001 -24.0955 -23.9311 -23.9283 -23.8702
   -23.8652 -23.8015 -12.2309  -4.8397  -4.2792  -3.5749

          k = 0.0000 0.1506 0.0000 ( 20051 PWs)   bands (ev):

   -24.2499 -24.2496 -24.2080 -24.1020 -24.0919 -23.9133 -23.9069 -23.8743
   -23.8633 -23.8004 -12.1506  -5.4451  -4.1963  -3.7221

          k = 0.0000 0.2008 0.0000 ( 20067 PWs)   bands (ev):

   -24.2716 -24.2715 -24.2058 -24.1044 -24.0870 -23.8943 -23.8823 -23.8799
   -23.8609 -23.7979 -12.0388  -6.0375  -4.0813  -3.8933

          k = 0.0000 0.2510 0.0000 ( 20051 PWs)   bands (ev):

   -24.2939 -24.2936 -24.2031 -24.1071 -24.0811 -23.8866 -23.8775 -23.8582
   -23.8569 -23.7927 -11.8963  -6.6098  -4.0702  -3.9358

          k = 0.0000 0.3012 0.0000 ( 20059 PWs)   bands (ev):

   -24.3153 -24.3144 -24.2003 -24.1099 -24.0743 -23.8941 -23.8651 -23.8554
   -23.8324 -23.7843 -11.7247  -7.1563  -4.2392  -3.7618

          k = 0.0000 0.3514 0.0000 ( 20083 PWs)   bands (ev):

   -24.3344 -24.3329 -24.1975 -24.1127 -24.0671 -23.9022 -23.8578 -23.8527
   -23.8103 -23.7730 -11.5269  -7.6709  -4.3908  -3.5630

          k = 0.0000 0.4016 0.0000 ( 20123 PWs)   bands (ev):

   -24.3506 -24.3485 -24.1949 -24.1151 -24.0599 -23.9101 -23.8541 -23.8503
   -23.7915 -23.7611 -11.3083  -8.1457  -4.5183  -3.3455

          k = 0.0000 0.4518 0.0000 ( 20145 PWs)   bands (ev):

   -24.3632 -24.3606 -24.1927 -24.1170 -24.0533 -23.9172 -23.8526 -23.8483
   -23.7767 -23.7505 -11.0805  -8.5672  -4.6173  -3.1216

          k = 0.0000 0.5020 0.0000 ( 20133 PWs)   bands (ev):

   -24.3718 -24.3688 -24.1912 -24.1184 -24.0482 -23.9228 -23.8521 -23.8470
   -23.7666 -23.7427 -10.8689  -8.9087  -4.6848  -2.9164

          k = 0.0000 0.5522 0.0000 ( 20116 PWs)   bands (ev):

   -24.3762 -24.3730 -24.1904 -24.1191 -24.0454 -23.9258 -23.8519 -23.8463
   -23.7614 -23.7387 -10.7277  -9.1151  -4.7190  -2.7812

          k = 0.0435 0.0753 0.0000 ( 19993 PWs)   bands (ev):

   -24.2293 -24.2225 -24.2109 -24.0997 -24.0962 -23.9353 -23.9331 -23.8694
   -23.8656 -23.8017 -12.2470  -4.6754  -4.2959  -3.5467

          k = 0.0435 0.1255 0.0000 ( 20015 PWs)   bands (ev):

   -24.2484 -24.2354 -24.2100 -24.1013 -24.0933 -23.9201 -23.9149 -23.8727
   -23.8640 -23.8009 -12.1827  -5.2283  -4.2294  -3.6811

          k = 0.0435 0.1757 0.0000 ( 20056 PWs)   bands (ev):

   -24.2710 -24.2531 -24.2082 -24.1035 -24.0890 -23.9018 -23.8923 -23.8776
   -23.8618 -23.7990 -12.0866  -5.8003  -4.1304  -3.8515

          k = 0.0435 0.2259 0.0000 ( 20043 PWs)   bands (ev):

   -24.2949 -24.2727 -24.2058 -24.1061 -24.0835 -23.8838 -23.8838 -23.8682
   -23.8592 -23.7948 -11.9594  -6.3664  -4.0359  -4.0001

          k = 0.0435 0.2761 0.0000 ( 20081 PWs)   bands (ev):

   -24.3181 -24.2922 -24.2031 -24.1090 -24.0770 -23.8911 -23.8692 -23.8564
   -23.8446 -23.7872 -11.8021  -6.9152  -4.2174  -3.8401

          k = 0.0435 0.3263 0.0000 ( 20082 PWs)   bands (ev):

   -24.3394 -24.3105 -24.2002 -24.1118 -24.0698 -23.8991 -23.8596 -23.8535
   -23.8230 -23.7758 -11.6170  -7.4387  -4.3846  -3.6532

          k = 0.0435 0.3765 0.0000 ( 20095 PWs)   bands (ev):

   -24.3579 -24.3264 -24.1975 -24.1144 -24.0624 -23.9072 -23.8546 -23.8509
   -23.8042 -23.7624 -11.4078  -7.9291  -4.5294  -3.4441

          k = 0.0435 0.4267 0.0000 ( 20117 PWs)   bands (ev):

   -24.3728 -24.3393 -24.1951 -24.1167 -24.0553 -23.9150 -23.8524 -23.8487
   -23.7889 -23.7496 -11.1824  -8.3759  -4.6465  -3.2212

          k = 0.0435 0.4769 0.0000 ( 20133 PWs)   bands (ev):

   -24.3838 -24.3489 -24.1932 -24.1184 -24.0492 -23.9216 -23.8516 -23.8471
   -23.7775 -23.7393 -10.9577  -8.7601  -4.7323  -3.0017

          k = 0.0435 0.5271 0.0000 ( 20120 PWs)   bands (ev):

   -24.3906 -24.3547 -24.1920 -24.1194 -24.0450 -23.9261 -23.8514 -23.8460
   -23.7706 -23.7327 -10.7715  -9.0425  -4.7847  -2.8224

          k = 0.0435 0.5774 0.0000 ( 20128 PWs)   bands (ev):

   -24.3928 -24.3567 -24.1916 -24.1198 -24.0435 -23.9277 -23.8514 -23.8456
   -23.7682 -23.7304 -10.6936  -9.1526  -4.8023  -2.7482

          k = 0.0870 0.1506 0.0000 ( 20037 PWs)   bands (ev):

   -24.2709 -24.2452 -24.2103 -24.1032 -24.0895 -23.9046 -23.8958 -23.8769
   -23.8620 -23.7992 -12.1025  -5.7108  -4.1468  -3.8530

          k = 0.0870 0.2008 0.0000 ( 20061 PWs)   bands (ev):

   -24.2955 -24.2590 -24.2094 -24.1058 -24.0845 -23.8874 -23.8826 -23.8747
   -23.8596 -23.7954 -11.9910  -6.2258  -4.0558  -4.0323

          k = 0.0870 0.2510 0.0000 ( 20089 PWs)   bands (ev):

   -24.3201 -24.2748 -24.2076 -24.1086 -24.0782 -23.8896 -23.8714 -23.8567
   -23.8544 -23.7878 -11.8488  -6.7456  -4.2630  -3.8873

          k = 0.0870 0.3012 0.0000 ( 20098 PWs)   bands (ev):

   -24.3433 -24.2906 -24.2051 -24.1116 -24.0711 -23.8975 -23.8597 -23.8538
   -23.8360 -23.7755 -11.6774  -7.2552  -4.4579  -3.7139

          k = 0.0870 0.3514 0.0000 ( 20087 PWs)   bands (ev):

   -24.3639 -24.3051 -24.2025 -24.1145 -24.0634 -23.9059 -23.8534 -23.8510
   -23.8194 -23.7602 -11.4797  -7.7435  -4.6303  -3.5155

          k = 0.0870 0.4016 0.0000 ( 20105 PWs)   bands (ev):

   -24.3813 -24.3177 -24.2001 -24.1170 -24.0557 -23.9143 -23.8507 -23.8485
   -23.8049 -23.7449 -11.2609  -8.2000  -4.7736  -3.2980

          k = 0.0870 0.4518 0.0000 ( 20107 PWs)   bands (ev):

   -24.3948 -24.3275 -24.1980 -24.1191 -24.0485 -23.9220 -23.8498 -23.8465
   -23.7933 -23.7319 -11.0319  -8.6100  -4.8839  -3.0731

          k = 0.0870 0.5020 0.0000 ( 20115 PWs)   bands (ev):

   -24.4039 -24.3343 -24.1965 -24.1205 -24.0429 -23.9280 -23.8497 -23.8451
   -23.7853 -23.7225 -10.8178  -8.9462  -4.9586  -2.8654

          k = 0.0870 0.5522 0.0000 ( 20125 PWs)   bands (ev):

   -24.4086 -24.3377 -24.1957 -24.1213 -24.0397 -23.9314 -23.8498 -23.8443
   -23.7812 -23.7177 -10.6732  -9.1521  -4.9963  -2.7270

          k = 0.1304 0.2259 0.0000 ( 20083 PWs)   bands (ev):

   -24.3208 -24.2676 -24.2101 -24.1086 -24.0786 -23.8891 -23.8719 -23.8582
   -23.8568 -23.7879 -11.8643  -6.6832  -4.2909  -3.9031

          k = 0.1304 0.2761 0.0000 ( 20092 PWs)   bands (ev):

   -24.3453 -24.2780 -24.2097 -24.1117 -24.0715 -23.8968 -23.8581 -23.8538
   -23.8451 -23.7750 -11.7078  -7.1508  -4.5237  -3.7444

          k = 0.1304 0.3263 0.0000 ( 20072 PWs)   bands (ev):

   -24.3677 -24.2889 -24.2084 -24.1148 -24.0636 -23.9054 -23.8508 -23.8500
   -23.8325 -23.7583 -11.5232  -7.6139  -4.7355  -3.5587

          k = 0.1304 0.3765 0.0000 ( 20088 PWs)   bands (ev):

   -24.3871 -24.2991 -24.2066 -24.1176 -24.0553 -23.9144 -23.8480 -23.8470
   -23.8197 -23.7410 -11.3141  -8.0602  -4.9160  -3.3502

          k = 0.1304 0.4267 0.0000 ( 20108 PWs)   bands (ev):

   -24.4028 -24.3078 -24.2048 -24.1201 -24.0470 -23.9232 -23.8465 -23.8456
   -23.8085 -23.7256 -11.0876  -8.4767  -5.0599  -3.1265

          k = 0.1304 0.4769 0.0000 ( 20115 PWs)   bands (ev):

   -24.4144 -24.3144 -24.2033 -24.1219 -24.0398 -23.9309 -23.8468 -23.8438
   -23.8000 -23.7137 -10.8592  -8.8436  -5.1642  -2.9037

          k = 0.1304 0.5271 0.0000 ( 20113 PWs)   bands (ev):

   -24.4215 -24.3185 -24.2023 -24.1231 -24.0346 -23.9363 -23.8472 -23.8427
   -23.7947 -23.7063 -10.6660  -9.1209  -5.2273  -2.7176

          k = 0.1304 0.5774 0.0000 ( 20117 PWs)   bands (ev):

   -24.4239 -24.3199 -24.2019 -24.1235 -24.0327 -23.9383 -23.8473 -23.8423
   -23.7929 -23.7037 -10.5831  -9.2321  -5.2484  -2.6386

          k = 0.1739 0.3012 0.0000 ( 20077 PWs)   bands (ev):

   -24.3689 -24.2824 -24.2113 -24.1149 -24.0636 -23.9054 -23.8507 -23.8455
   -23.8403 -23.7576 -11.5378  -7.5666  -4.7788  -3.5732

          k = 0.1739 0.3514 0.0000 ( 20078 PWs)   bands (ev):

   -24.3900 -24.2875 -24.2119 -24.1181 -24.0548 -23.9147 -23.8476 -23.8409
   -23.8318 -23.7389 -11.3410  -7.9810  -5.0060  -3.3765

          k = 0.1739 0.4016 0.0000 ( 20095 PWs)   bands (ev):

   -24.4078 -24.2927 -24.2118 -24.1209 -24.0457 -23.9244 -23.8449 -23.8413
   -23.8214 -23.7216 -11.1220  -8.3824  -5.1942  -3.1596

          k = 0.1739 0.4518 0.0000 ( 20098 PWs)   bands (ev):

   -24.4215 -24.2971 -24.2113 -24.1232 -24.0368 -23.9337 -23.8427 -23.8424
   -23.8130 -23.7074 -10.8900  -8.7559  -5.3379  -2.9321

          k = 0.1739 0.5020 0.0000 ( 20123 PWs)   bands (ev):

   -24.4310 -24.3004 -24.2108 -24.1248 -24.0294 -23.9414 -23.8433 -23.8412
   -23.8071 -23.6975 -10.6673  -9.0753  -5.4345  -2.7163

          k = 0.1739 0.5522 0.0000 ( 20111 PWs)   bands (ev):

   -24.4357 -24.3021 -24.2104 -24.1256 -24.0250 -23.9459 -23.8439 -23.8404
   -23.8041 -23.6924 -10.5100  -9.2816  -5.4830  -2.5657

          k = 0.2174 0.3765 0.0000 ( 20093 PWs)   bands (ev):

   -24.4094 -24.2866 -24.2151 -24.1212 -24.0451 -23.9249 -23.8447 -23.8363
   -23.8290 -23.7202 -11.1336  -8.3480  -5.2441  -3.1708

          k = 0.2174 0.4267 0.0000 ( 20107 PWs)   bands (ev):

   -24.4252 -24.2861 -24.2176 -24.1239 -24.0350 -23.9354 -23.8421 -23.8371
   -23.8227 -23.7042 -10.9063  -8.7049  -5.4363  -2.9472

          k = 0.2174 0.4769 0.0000 ( 20121 PWs)   bands (ev):

   -24.4368 -24.2860 -24.2192 -24.1260 -24.0254 -23.9453 -23.8401 -23.8386
   -23.8174 -23.6920 -10.6710  -9.0360  -5.5762  -2.7180

          k = 0.2174 0.5271 0.0000 ( 20113 PWs)   bands (ev):

   -24.4439 -24.2860 -24.2201 -24.1273 -24.0179 -23.9530 -23.8396 -23.8389
   -23.8140 -23.6844 -10.4599  -9.3058  -5.6610  -2.5148

          k = 0.2174 0.5774 0.0000 ( 20117 PWs)   bands (ev):

   -24.4463 -24.2860 -24.2204 -24.1277 -24.0148 -23.9561 -23.8400 -23.8385
   -23.8129 -23.6819 -10.3615  -9.4241  -5.6893  -2.4210

          k = 0.2609 0.4518 0.0000 ( 20139 PWs)   bands (ev):

   -24.4387 -24.2799 -24.2232 -24.1264 -24.0239 -23.9468 -23.8397 -23.8353
   -23.8226 -23.6901 -10.6728  -9.0205  -5.6266  -2.7190

          k = 0.2609 0.5020 0.0000 ( 20127 PWs)   bands (ev):

   -24.4480 -24.2747 -24.2280 -24.1282 -24.0133 -23.9576 -23.8381 -23.8353
   -23.8213 -23.6803 -10.4350  -9.3140  -5.7566  -2.4890

          k = 0.2609 0.5522 0.0000 ( 20095 PWs)   bands (ev):

   -24.4527 -24.2716 -24.2310 -24.1291 -24.0055 -23.9655 -23.8372 -23.8357
   -23.8204 -23.6753 -10.2424  -9.5349  -5.8225  -2.3045

          k = 0.3043 0.5271 0.0000 ( 20117 PWs)   bands (ev):

   -24.4549 -24.2641 -24.2371 -24.1295 -24.0010 -23.9699 -23.8368 -23.8327
   -23.8244 -23.6731 -10.1929  -9.5808  -5.8685  -2.2558

          k = 0.3043 0.5774 0.0000 ( 20091 PWs)   bands (ev):

   -24.4572 -24.2580 -24.2427 -24.1300 -23.9932 -23.9778 -23.8363 -23.8314
   -23.8259 -23.6706 -10.0277  -9.7540  -5.9063  -2.0981

     highest occupied level (ev):    -2.0981

!    total energy              =    -326.39055977 Ry
     estimated scf accuracy    <       0.00000098 Ry

     The total energy is the sum of the following terms:
     one-electron contribution =    -882.70994522 Ry
     hartree contribution      =     448.40796581 Ry
     xc contribution           =     -95.06688410 Ry
     ewald contribution        =     202.97830373 Ry

     convergence has been achieved in   6 iterations

     Writing output data file ../tmp/stanene.save/

     init_run     :      4.54s CPU      4.74s WALL (       1 calls)
     electrons    :     70.84s CPU     73.39s WALL (       1 calls)

     Called by init_run:
     wfcinit      :      4.13s CPU      4.28s WALL (       1 calls)
     potinit      :      0.11s CPU      0.13s WALL (       1 calls)
     hinit0       :      0.16s CPU      0.17s WALL (       1 calls)

     Called by electrons:
     c_bands      :     62.38s CPU     64.31s WALL (       6 calls)
     sum_band     :      7.59s CPU      8.11s WALL (       6 calls)
     v_of_rho     :      0.26s CPU      0.29s WALL (       7 calls)
     newd         :      0.67s CPU      0.77s WALL (       7 calls)
     mix_rho      :      0.05s CPU      0.05s WALL (       6 calls)

     Called by c_bands:
     init_us_2    :      0.72s CPU      0.74s WALL (     728 calls)
     cegterg      :     59.72s CPU     61.62s WALL (     336 calls)

     Called by *egterg:
     cdiaghg      :      0.66s CPU      0.67s WALL (    1257 calls)
     h_psi        :     41.54s CPU     43.45s WALL (    1313 calls)
     s_psi        :      2.96s CPU      3.00s WALL (    1313 calls)
     g_psi        :      0.28s CPU      0.28s WALL (     921 calls)

     Called by h_psi:
     h_psi:calbec :      4.99s CPU      5.17s WALL (    1313 calls)
     vloc_psi     :     33.34s CPU     35.02s WALL (    1313 calls)
     add_vuspsi   :      3.05s CPU      3.11s WALL (    1313 calls)

     General routines
     calbec       :      6.46s CPU      6.67s WALL (    1649 calls)
     fft          :      0.21s CPU      0.22s WALL (      77 calls)
     ffts         :      0.01s CPU      0.01s WALL (       6 calls)
     fftw         :     34.80s CPU     36.50s WALL (   35620 calls)

     Parallel routines
     fft_scatt_xy :      3.16s CPU      3.38s WALL (   35703 calls)
     fft_scatt_yz :     18.20s CPU     18.89s WALL (   35703 calls)

     PWSCF        :   1m15.69s CPU   1m18.60s WALL


   This run was terminated on:  21:15:11  20Jan2024            

=------------------------------------------------------------------------------=
   JOB DONE.
=------------------------------------------------------------------------------=
