
     Program PWSCF v.6.7MaX starts on 20Jan2024 at 20:59:42 

     This program is part of the open-source Quantum ESPRESSO suite
     for quantum simulation of materials; please cite
         "P. Giannozzi et al., J. Phys.:Condens. Matter 21 395502 (2009);
         "P. Giannozzi et al., J. Phys.:Condens. Matter 29 465901 (2017);
          URL http://www.quantum-espresso.org", 
     in publications or presentations arising from this work. More details at
     http://www.quantum-espresso.org/quote

     Parallel version (MPI), running on     6 processors

     MPI processes distributed on     1 nodes
     R & G space division:  proc/nbgrp/npool/nimage =       6
     Waiting for input...
     Reading input from standard input

     Current dimensions of program PWSCF are:
     Max number of different atomic species (ntypx) = 10
     Max number of k-points (npk) =  40000
     Max angular momentum in pseudopotentials (lmaxx) =  3

     Subspace diagonalization in iterative solution of the eigenvalue problem:
     one sub-group per band group will be used
     scalapack distributed-memory algorithm (size of sub-group:  2*  2 procs)


     Parallelization info
     --------------------
     sticks:   dense  smooth     PW     G-vecs:    dense   smooth      PW
     Min         214     214     61                26776    26776    4007
     Max         215     215     62                26799    26799    4017
     Sum        1285    1285    367               160699   160699   24069



     bravais-lattice index     =            4
     lattice parameter (alat)  =       8.8439  a.u.
     unit-cell volume          =    2560.0529 (a.u.)^3
     number of atoms/cell      =            2
     number of atomic types    =            1
     number of electrons       =        28.00
     number of Kohn-Sham states=           14
     kinetic-energy cutoff     =      60.0000  Ry
     charge density cutoff     =     240.0000  Ry
     scf convergence threshold =      1.0E-06
     mixing beta               =       0.7000
     number of iterations used =            8  plain     mixing
     Exchange-correlation= SLA  PW   PBE  PBE
                           (   1   4   3   4   0   0   0)

     celldm(1)=   8.843918  celldm(2)=   0.000000  celldm(3)=   4.273504
     celldm(4)=   0.000000  celldm(5)=   0.000000  celldm(6)=   0.000000

     crystal axes: (cart. coord. in units of alat)
               a(1) = (   1.000000   0.000000   0.000000 )  
               a(2) = (  -0.500000   0.866025   0.000000 )  
               a(3) = (   0.000000   0.000000   4.273504 )  

     reciprocal axes: (cart. coord. in units 2 pi/alat)
               b(1) = (  1.000000  0.577350 -0.000000 )  
               b(2) = (  0.000000  1.154701  0.000000 )  
               b(3) = (  0.000000 -0.000000  0.234000 )  


     PseudoPot. # 1 for Sn read from file:
     ../pseudo/Sn_pbe_v1.uspp.F.UPF
     MD5 check sum: 4cf58ce39ec5d5d420df3dd08604eb00
     Pseudo is Ultrasoft + core correction, Zval = 14.0
     Generated by new atomic code, or converted to UPF format
     Using radial grid of  891 points,  6 beta functions with: 
                l(1) =   0
                l(2) =   0
                l(3) =   1
                l(4) =   1
                l(5) =   2
                l(6) =   2
     Q(r) pseudized with  6 coefficients,  rinner =    1.200   1.200   1.200
                                                       1.200   1.200

     atomic species   valence    mass     pseudopotential
        Sn            14.00   118.71000     Sn( 1.00)

     24 Sym. Ops., with inversion, found



   Cartesian axes

     site n.     atom                  positions (alat units)
         1           Sn  tau(   1) = (   0.0000000   0.5773503   2.1367521  )
         2           Sn  tau(   2) = (   0.5000000   0.2886751   2.1367521  )

     number of k points=     7
                       cart. coord. in units 2pi/alat
        k(    1) = (   0.0000000   0.0000000   0.0000000), wk =   0.0555556
        k(    2) = (   0.0000000   0.1924501   0.0000000), wk =   0.3333333
        k(    3) = (   0.0000000   0.3849002   0.0000000), wk =   0.3333333
        k(    4) = (   0.0000000  -0.5773503   0.0000000), wk =   0.1666667
        k(    5) = (   0.1666667   0.2886751   0.0000000), wk =   0.3333333
        k(    6) = (   0.1666667   0.4811252   0.0000000), wk =   0.6666667
        k(    7) = (   0.3333333   0.5773503   0.0000000), wk =   0.1111111

     Dense  grid:   160699 G-vectors     FFT dimensions: (  45,  45, 192)

     Estimated max dynamical RAM per process >     101.23 MB

     Estimated total dynamical RAM >     607.39 MB

     Initial potential from superposition of free atoms

     starting charge   25.99991, renormalised to   28.00000

     negative rho (up, down):  5.017E-03 0.000E+00
     Starting wfcs are   18 randomized atomic wfcs

     total cpu time spent up to now is        1.1 secs

     Self-consistent Calculation

     iteration #  1     ecut=    60.00 Ry     beta= 0.70
     Davidson diagonalization with overlap
     ethr =  1.00E-02,  avg # of iterations =  2.0

     negative rho (up, down):  3.311E-03 0.000E+00

     total cpu time spent up to now is        2.9 secs

     total energy              =    -325.48977190 Ry
     estimated scf accuracy    <       2.41474808 Ry

     iteration #  2     ecut=    60.00 Ry     beta= 0.70
     Davidson diagonalization with overlap
     ethr =  8.62E-03,  avg # of iterations =  2.0

     negative rho (up, down):  3.601E-03 0.000E+00

     total cpu time spent up to now is        4.8 secs

     total energy              =    -326.34356931 Ry
     estimated scf accuracy    <       0.29492974 Ry

     iteration #  3     ecut=    60.00 Ry     beta= 0.70
     Davidson diagonalization with overlap
     ethr =  1.05E-03,  avg # of iterations =  2.0

     negative rho (up, down):  3.779E-03 0.000E+00

     total cpu time spent up to now is        6.6 secs

     total energy              =    -326.38310022 Ry
     estimated scf accuracy    <       0.00613644 Ry

     iteration #  4     ecut=    60.00 Ry     beta= 0.70
     Davidson diagonalization with overlap
     ethr =  2.19E-05,  avg # of iterations =  3.0

     negative rho (up, down):  3.700E-03 0.000E+00

     total cpu time spent up to now is        9.2 secs

     total energy              =    -326.38552732 Ry
     estimated scf accuracy    <       0.00106683 Ry

     iteration #  5     ecut=    60.00 Ry     beta= 0.70
     Davidson diagonalization with overlap
     ethr =  3.81E-06,  avg # of iterations =  2.1

     negative rho (up, down):  3.680E-03 0.000E+00

     total cpu time spent up to now is       11.2 secs

     total energy              =    -326.38579271 Ry
     estimated scf accuracy    <       0.00000761 Ry

     iteration #  6     ecut=    60.00 Ry     beta= 0.70
     Davidson diagonalization with overlap
     ethr =  2.72E-08,  avg # of iterations =  5.3

     negative rho (up, down):  3.681E-03 0.000E+00

     total cpu time spent up to now is       13.4 secs

     total energy              =    -326.38714341 Ry
     estimated scf accuracy    <       0.00007702 Ry

     iteration #  7     ecut=    60.00 Ry     beta= 0.70
     Davidson diagonalization with overlap
     ethr =  2.72E-08,  avg # of iterations =  1.0

     negative rho (up, down):  3.680E-03 0.000E+00

     total cpu time spent up to now is       14.8 secs

     total energy              =    -326.38712769 Ry
     estimated scf accuracy    <       0.00008068 Ry

     iteration #  8     ecut=    60.00 Ry     beta= 0.70
     Davidson diagonalization with overlap
     ethr =  2.72E-08,  avg # of iterations =  2.0

     negative rho (up, down):  3.680E-03 0.000E+00

     total cpu time spent up to now is       17.5 secs

     total energy              =    -326.38712886 Ry
     estimated scf accuracy    <       0.00003109 Ry

     iteration #  9     ecut=    60.00 Ry     beta= 0.70
     Davidson diagonalization with overlap
     ethr =  2.72E-08,  avg # of iterations =  1.0

     negative rho (up, down):  3.679E-03 0.000E+00

     total cpu time spent up to now is       18.9 secs

     total energy              =    -326.38712161 Ry
     estimated scf accuracy    <       0.00002987 Ry

     iteration # 10     ecut=    60.00 Ry     beta= 0.70
     Davidson diagonalization with overlap
     ethr =  2.72E-08,  avg # of iterations =  2.3

     negative rho (up, down):  3.678E-03 0.000E+00

     total cpu time spent up to now is       20.6 secs

     total energy              =    -326.38713041 Ry
     estimated scf accuracy    <       0.00000665 Ry

     iteration # 11     ecut=    60.00 Ry     beta= 0.70
     Davidson diagonalization with overlap
     ethr =  2.38E-08,  avg # of iterations =  2.1

     negative rho (up, down):  3.686E-03 0.000E+00

     total cpu time spent up to now is       22.5 secs

     total energy              =    -326.38714531 Ry
     estimated scf accuracy    <       0.00003510 Ry

     iteration # 12     ecut=    60.00 Ry     beta= 0.70
     Davidson diagonalization with overlap
     ethr =  2.38E-08,  avg # of iterations =  5.3

     negative rho (up, down):  3.679E-03 0.000E+00

     total cpu time spent up to now is       25.1 secs

     total energy              =    -326.38707160 Ry
     estimated scf accuracy    <       0.00020076 Ry

     iteration # 13     ecut=    60.00 Ry     beta= 0.70
     Davidson diagonalization with overlap
     ethr =  2.38E-08,  avg # of iterations =  4.9

     negative rho (up, down):  3.678E-03 0.000E+00

     total cpu time spent up to now is       27.5 secs

     total energy              =    -326.38712238 Ry
     estimated scf accuracy    <       0.00000141 Ry

     iteration # 14     ecut=    60.00 Ry     beta= 0.70
     Davidson diagonalization with overlap
     ethr =  5.02E-09,  avg # of iterations =  2.0

     negative rho (up, down):  3.680E-03 0.000E+00

     total cpu time spent up to now is       29.0 secs

     total energy              =    -326.38712093 Ry
     estimated scf accuracy    <       0.00000226 Ry

     iteration # 15     ecut=    60.00 Ry     beta= 0.70
     Davidson diagonalization with overlap
     ethr =  5.02E-09,  avg # of iterations =  2.9

     negative rho (up, down):  3.679E-03 0.000E+00

     total cpu time spent up to now is       31.2 secs

     End of self-consistent calculation

          k = 0.0000 0.0000 0.0000 ( 20001 PWs)   bands (ev):

   -24.1948 -24.1948 -24.1871 -24.0758 -24.0758 -23.9312 -23.9312 -23.8438
   -23.8438 -23.7772 -12.2907  -4.3407  -3.7528  -3.4341

          k = 0.0000 0.1925 0.0000 ( 20061 PWs)   bands (ev):

   -24.2506 -24.2493 -24.1839 -24.0813 -24.0653 -23.8786 -23.8687 -23.8559
   -23.8383 -23.7743 -12.0549  -5.9348  -4.0972  -3.8618

          k = 0.0000 0.3849 0.0000 ( 20131 PWs)   bands (ev):

   -24.3274 -24.3264 -24.1736 -24.0917 -24.0396 -23.8846 -23.8325 -23.8280
   -23.7794 -23.7441 -11.3782  -7.9878  -4.4771  -3.4137

          k = 0.0000-0.5774 0.0000 ( 20096 PWs)   bands (ev):

   -24.3586 -24.3563 -24.1682 -24.0966 -24.0223 -23.9033 -23.8283 -23.8231
   -23.7428 -23.7182 -10.7024  -9.1393  -4.7218  -2.7557

          k = 0.1667 0.2887 0.0000 ( 20089 PWs)   bands (ev):

   -24.3438 -24.2627 -24.1889 -24.0912 -24.0437 -23.8795 -23.8299 -23.8287
   -23.8203 -23.7434 -11.5932  -7.4212  -4.6959  -3.6280

          k = 0.1667 0.4811 0.0000 ( 20107 PWs)   bands (ev):

   -24.4084 -24.2832 -24.1882 -24.1013 -24.0108 -23.9143 -23.8206 -23.8190
   -23.7874 -23.6844 -10.7672  -8.9313  -5.3632  -2.8117

          k = 0.3333 0.5774 0.0000 ( 20085 PWs)   bands (ev):

   -24.4409 -24.2304 -24.2304 -24.1076 -23.9627 -23.9627 -23.8131 -23.8067
   -23.8067 -23.6517  -9.8864  -9.8864  -5.9197  -1.9614

     highest occupied level (ev):    -1.9614

!    total energy              =    -326.38712147 Ry
     estimated scf accuracy    <       0.00000092 Ry

     The total energy is the sum of the following terms:
     one-electron contribution =    -882.70316443 Ry
     hartree contribution      =     448.40374652 Ry
     xc contribution           =     -95.06600729 Ry
     ewald contribution        =     202.97830373 Ry

     convergence has been achieved in  15 iterations

     Writing output data file ../tmp/stanene.save/

     init_run     :      0.96s CPU      1.01s WALL (       1 calls)
     electrons    :     28.46s CPU     30.12s WALL (       1 calls)

     Called by init_run:
     wfcinit      :      0.49s CPU      0.51s WALL (       1 calls)
     potinit      :      0.13s CPU      0.15s WALL (       1 calls)
     hinit0       :      0.18s CPU      0.19s WALL (       1 calls)

     Called by electrons:
     c_bands      :     21.54s CPU     22.13s WALL (      15 calls)
     sum_band     :      4.33s CPU      5.16s WALL (      15 calls)
     v_of_rho     :      0.75s CPU      0.77s WALL (      16 calls)
     newd         :      1.71s CPU      1.93s WALL (      16 calls)
     mix_rho      :      0.26s CPU      0.26s WALL (      15 calls)

     Called by c_bands:
     init_us_2    :      0.22s CPU      0.23s WALL (     217 calls)
     cegterg      :     20.66s CPU     21.24s WALL (     105 calls)

     Called by *egterg:
     cdiaghg      :      0.23s CPU      0.23s WALL (     384 calls)
     h_psi        :     13.70s CPU     14.26s WALL (     391 calls)
     s_psi        :      0.90s CPU      0.91s WALL (     391 calls)
     g_psi        :      0.08s CPU      0.08s WALL (     279 calls)

     Called by h_psi:
     h_psi:calbec :      1.58s CPU      1.64s WALL (     391 calls)
     vloc_psi     :     11.10s CPU     11.60s WALL (     391 calls)
     add_vuspsi   :      0.96s CPU      0.97s WALL (     391 calls)

     General routines
     calbec       :      2.12s CPU      2.18s WALL (     496 calls)
     fft          :      0.56s CPU      0.58s WALL (     176 calls)
     ffts         :      0.03s CPU      0.03s WALL (      15 calls)
     fftw         :     11.95s CPU     12.43s WALL (   10478 calls)

     Parallel routines
     fft_scatt_xy :      1.07s CPU      1.13s WALL (   10669 calls)
     fft_scatt_yz :      7.15s CPU      7.38s WALL (   10669 calls)

     PWSCF        :     29.49s CPU     31.26s WALL


   This run was terminated on:  21: 0:13  20Jan2024            

=------------------------------------------------------------------------------=
   JOB DONE.
=------------------------------------------------------------------------------=
