
     Program PWSCF v.6.7MaX starts on 20Jan2024 at 21:12:31 

     This program is part of the open-source Quantum ESPRESSO suite
     for quantum simulation of materials; please cite
         "P. Giannozzi et al., J. Phys.:Condens. Matter 21 395502 (2009);
         "P. Giannozzi et al., J. Phys.:Condens. Matter 29 465901 (2017);
          URL http://www.quantum-espresso.org", 
     in publications or presentations arising from this work. More details at
     http://www.quantum-espresso.org/quote

     Parallel version (MPI), running on     6 processors

     MPI processes distributed on     1 nodes
     R & G space division:  proc/nbgrp/npool/nimage =       6
     Waiting for input...
     Reading input from standard input

     Current dimensions of program PWSCF are:
     Max number of different atomic species (ntypx) = 10
     Max number of k-points (npk) =  40000
     Max angular momentum in pseudopotentials (lmaxx) =  3

     Subspace diagonalization in iterative solution of the eigenvalue problem:
     one sub-group per band group will be used
     scalapack distributed-memory algorithm (size of sub-group:  2*  2 procs)


     Parallelization info
     --------------------
     sticks:   dense  smooth     PW     G-vecs:    dense   smooth      PW
     Min         214     214     60                26776    26776    3976
     Max         215     215     61                26799    26799    3991
     Sum        1285    1285    361               160699   160699   23883



     bravais-lattice index     =            4
     lattice parameter (alat)  =       8.8439  a.u.
     unit-cell volume          =    2560.0529 (a.u.)^3
     number of atoms/cell      =            2
     number of atomic types    =            1
     number of electrons       =        28.00
     number of Kohn-Sham states=           14
     kinetic-energy cutoff     =      60.0000  Ry
     charge density cutoff     =     240.0000  Ry
     scf convergence threshold =      1.0E-06
     mixing beta               =       0.7000
     number of iterations used =            8  plain     mixing
     Exchange-correlation= SLA  PW   PBE  PBE
                           (   1   4   3   4   0   0   0)

     celldm(1)=   8.843918  celldm(2)=   0.000000  celldm(3)=   4.273504
     celldm(4)=   0.000000  celldm(5)=   0.000000  celldm(6)=   0.000000

     crystal axes: (cart. coord. in units of alat)
               a(1) = (   1.000000   0.000000   0.000000 )  
               a(2) = (  -0.500000   0.866025   0.000000 )  
               a(3) = (   0.000000   0.000000   4.273504 )  

     reciprocal axes: (cart. coord. in units 2 pi/alat)
               b(1) = (  1.000000  0.577350 -0.000000 )  
               b(2) = (  0.000000  1.154701  0.000000 )  
               b(3) = (  0.000000 -0.000000  0.234000 )  


     PseudoPot. # 1 for Sn read from file:
     ../pseudo/Sn_pbe_v1.uspp.F.UPF
     MD5 check sum: 4cf58ce39ec5d5d420df3dd08604eb00
     Pseudo is Ultrasoft + core correction, Zval = 14.0
     Generated by new atomic code, or converted to UPF format
     Using radial grid of  891 points,  6 beta functions with: 
                l(1) =   0
                l(2) =   0
                l(3) =   1
                l(4) =   1
                l(5) =   2
                l(6) =   2
     Q(r) pseudized with  6 coefficients,  rinner =    1.200   1.200   1.200
                                                       1.200   1.200

     atomic species   valence    mass     pseudopotential
        Sn            14.00   118.71000     Sn( 1.00)

     24 Sym. Ops., with inversion, found



   Cartesian axes

     site n.     atom                  positions (alat units)
         1           Sn  tau(   1) = (   0.0000000   0.5773503   2.1367521  )
         2           Sn  tau(   2) = (   0.5000000   0.2886751   2.1367521  )

     number of k points=    52
                       cart. coord. in units 2pi/alat
        k(    1) = (   0.0000000   0.0000000   0.0000000), wk =   0.0041322
        k(    2) = (   0.0000000   0.0524864   0.0000000), wk =   0.0247934
        k(    3) = (   0.0000000   0.1049728   0.0000000), wk =   0.0247934
        k(    4) = (   0.0000000   0.1574592   0.0000000), wk =   0.0247934
        k(    5) = (   0.0000000   0.2099456   0.0000000), wk =   0.0247934
        k(    6) = (   0.0000000   0.2624319   0.0000000), wk =   0.0247934
        k(    7) = (   0.0000000   0.3149183   0.0000000), wk =   0.0247934
        k(    8) = (   0.0000000   0.3674047   0.0000000), wk =   0.0247934
        k(    9) = (   0.0000000   0.4198911   0.0000000), wk =   0.0247934
        k(   10) = (   0.0000000   0.4723775   0.0000000), wk =   0.0247934
        k(   11) = (   0.0000000   0.5248639   0.0000000), wk =   0.0247934
        k(   12) = (   0.0000000  -0.5773503   0.0000000), wk =   0.0123967
        k(   13) = (   0.0454545   0.0787296   0.0000000), wk =   0.0247934
        k(   14) = (   0.0454545   0.1312160   0.0000000), wk =   0.0495868
        k(   15) = (   0.0454545   0.1837024   0.0000000), wk =   0.0495868
        k(   16) = (   0.0454545   0.2361887   0.0000000), wk =   0.0495868
        k(   17) = (   0.0454545   0.2886751   0.0000000), wk =   0.0495868
        k(   18) = (   0.0454545   0.3411615   0.0000000), wk =   0.0495868
        k(   19) = (   0.0454545   0.3936479   0.0000000), wk =   0.0495868
        k(   20) = (   0.0454545   0.4461343   0.0000000), wk =   0.0495868
        k(   21) = (   0.0454545   0.4986207   0.0000000), wk =   0.0495868
        k(   22) = (   0.0454545   0.5511071   0.0000000), wk =   0.0495868
        k(   23) = (   0.0909091   0.1574592   0.0000000), wk =   0.0247934
        k(   24) = (   0.0909091   0.2099456   0.0000000), wk =   0.0495868
        k(   25) = (   0.0909091   0.2624319   0.0000000), wk =   0.0495868
        k(   26) = (   0.0909091   0.3149183   0.0000000), wk =   0.0495868
        k(   27) = (   0.0909091   0.3674047   0.0000000), wk =   0.0495868
        k(   28) = (   0.0909091   0.4198911   0.0000000), wk =   0.0495868
        k(   29) = (   0.0909091   0.4723775   0.0000000), wk =   0.0495868
        k(   30) = (   0.0909091   0.5248639   0.0000000), wk =   0.0495868
        k(   31) = (   0.0909091   0.5773503   0.0000000), wk =   0.0247934
        k(   32) = (   0.1363636   0.2361887   0.0000000), wk =   0.0247934
        k(   33) = (   0.1363636   0.2886751   0.0000000), wk =   0.0495868
        k(   34) = (   0.1363636   0.3411615   0.0000000), wk =   0.0495868
        k(   35) = (   0.1363636   0.3936479   0.0000000), wk =   0.0495868
        k(   36) = (   0.1363636   0.4461343   0.0000000), wk =   0.0495868
        k(   37) = (   0.1363636   0.4986207   0.0000000), wk =   0.0495868
        k(   38) = (   0.1363636   0.5511071   0.0000000), wk =   0.0495868
        k(   39) = (   0.1818182   0.3149183   0.0000000), wk =   0.0247934
        k(   40) = (   0.1818182   0.3674047   0.0000000), wk =   0.0495868
        k(   41) = (   0.1818182   0.4198911   0.0000000), wk =   0.0495868
        k(   42) = (   0.1818182   0.4723775   0.0000000), wk =   0.0495868
        k(   43) = (   0.1818182   0.5248639   0.0000000), wk =   0.0495868
        k(   44) = (   0.1818182   0.5773503   0.0000000), wk =   0.0247934
        k(   45) = (   0.2272727   0.3936479   0.0000000), wk =   0.0247934
        k(   46) = (   0.2272727   0.4461343   0.0000000), wk =   0.0495868
        k(   47) = (   0.2272727   0.4986207   0.0000000), wk =   0.0495868
        k(   48) = (   0.2272727   0.5511071   0.0000000), wk =   0.0495868
        k(   49) = (   0.2727273   0.4723775   0.0000000), wk =   0.0247934
        k(   50) = (   0.2727273   0.5248639   0.0000000), wk =   0.0495868
        k(   51) = (   0.2727273   0.5773503   0.0000000), wk =   0.0247934
        k(   52) = (   0.3181818   0.5511071   0.0000000), wk =   0.0247934

     Dense  grid:   160699 G-vectors     FFT dimensions: (  45,  45, 192)

     Estimated max dynamical RAM per process >     133.42 MB

     Estimated total dynamical RAM >     800.50 MB

     Initial potential from superposition of free atoms

     starting charge   25.99991, renormalised to   28.00000

     negative rho (up, down):  5.017E-03 0.000E+00
     Starting wfcs are   18 randomized atomic wfcs

     total cpu time spent up to now is        4.3 secs

     Self-consistent Calculation

     iteration #  1     ecut=    60.00 Ry     beta= 0.70
     Davidson diagonalization with overlap
     ethr =  1.00E-02,  avg # of iterations =  2.0

     negative rho (up, down):  3.313E-03 0.000E+00

     total cpu time spent up to now is       14.5 secs

     total energy              =    -325.49405304 Ry
     estimated scf accuracy    <       2.41373704 Ry

     iteration #  2     ecut=    60.00 Ry     beta= 0.70
     Davidson diagonalization with overlap
     ethr =  8.62E-03,  avg # of iterations =  2.0

     negative rho (up, down):  3.602E-03 0.000E+00

     total cpu time spent up to now is       25.8 secs

     total energy              =    -326.34787895 Ry
     estimated scf accuracy    <       0.29495541 Ry

     iteration #  3     ecut=    60.00 Ry     beta= 0.70
     Davidson diagonalization with overlap
     ethr =  1.05E-03,  avg # of iterations =  2.1

     negative rho (up, down):  3.776E-03 0.000E+00

     total cpu time spent up to now is       36.6 secs

     total energy              =    -326.38769378 Ry
     estimated scf accuracy    <       0.00612759 Ry

     iteration #  4     ecut=    60.00 Ry     beta= 0.70
     Davidson diagonalization with overlap
     ethr =  2.19E-05,  avg # of iterations =  3.0

     negative rho (up, down):  3.700E-03 0.000E+00

     total cpu time spent up to now is       48.8 secs

     total energy              =    -326.39020596 Ry
     estimated scf accuracy    <       0.00099378 Ry

     iteration #  5     ecut=    60.00 Ry     beta= 0.70
     Davidson diagonalization with overlap
     ethr =  3.55E-06,  avg # of iterations =  2.2

     negative rho (up, down):  3.678E-03 0.000E+00

     total cpu time spent up to now is       59.8 secs

     total energy              =    -326.39045937 Ry
     estimated scf accuracy    <       0.00000874 Ry

     iteration #  6     ecut=    60.00 Ry     beta= 0.70
     Davidson diagonalization with overlap
     ethr =  3.12E-08,  avg # of iterations =  5.2

     negative rho (up, down):  3.678E-03 0.000E+00

     total cpu time spent up to now is       72.2 secs

     total energy              =    -326.39056289 Ry
     estimated scf accuracy    <       0.00000110 Ry

     iteration #  7     ecut=    60.00 Ry     beta= 0.70
     Davidson diagonalization with overlap
     ethr =  3.93E-09,  avg # of iterations =  2.3

     negative rho (up, down):  3.682E-03 0.000E+00

     total cpu time spent up to now is       80.3 secs

     End of self-consistent calculation

          k = 0.0000 0.0000 0.0000 ( 20001 PWs)   bands (ev):

   -24.2122 -24.2122 -24.2106 -24.0982 -24.0982 -23.9488 -23.9488 -23.8666
   -23.8666 -23.8017 -12.2952  -4.3457  -3.7610  -3.4365

          k = 0.0000 0.0525 0.0000 ( 20011 PWs)   bands (ev):

   -24.2176 -24.2173 -24.2106 -24.0987 -24.0974 -23.9436 -23.9428 -23.8675
   -23.8661 -23.8016 -12.2775  -4.3274  -4.2606  -3.4764

          k = 0.0000 0.1050 0.0000 ( 19983 PWs)   bands (ev):

   -24.2323 -24.2319 -24.2094 -24.1000 -24.0950 -23.9296 -23.9265 -23.8703
   -23.8648 -23.8012 -12.2247  -4.8948  -4.2727  -3.5865

          k = 0.0000 0.1575 0.0000 ( 20065 PWs)   bands (ev):

   -24.2527 -24.2524 -24.2075 -24.1020 -24.0911 -23.9106 -23.9036 -23.8748
   -23.8628 -23.7999 -12.1369  -5.5266  -4.1821  -3.7443

          k = 0.0000 0.2099 0.0000 ( 20069 PWs)   bands (ev):

   -24.2756 -24.2755 -24.2051 -24.1046 -24.0858 -23.8909 -23.8808 -23.8776
   -23.8602 -23.7969 -12.0149  -6.1430  -4.0568  -3.9253

          k = 0.0000 0.2624 0.0000 ( 20051 PWs)   bands (ev):

   -24.2988 -24.2984 -24.2023 -24.1075 -24.0794 -23.8880 -23.8741 -23.8573
   -23.8511 -23.7909 -11.8595  -6.7362  -4.1095  -3.8983

          k = 0.0000 0.3149 0.0000 ( 20081 PWs)   bands (ev):

   -24.3207 -24.3197 -24.1993 -24.1105 -24.0721 -23.8961 -23.8625 -23.8544
   -23.8261 -23.7812 -11.6729  -7.2998  -4.2824  -3.7095

          k = 0.0000 0.3674 0.0000 ( 20093 PWs)   bands (ev):

   -24.3399 -24.3382 -24.1964 -24.1132 -24.0645 -23.9045 -23.8561 -23.8516
   -23.8039 -23.7691 -11.4589  -7.8265  -4.4340  -3.4950

          k = 0.0000 0.4199 0.0000 ( 20129 PWs)   bands (ev):

   -24.3555 -24.3533 -24.1938 -24.1156 -24.0572 -23.9126 -23.8531 -23.8493
   -23.7856 -23.7568 -11.2253  -8.3059  -4.5576  -3.2636

          k = 0.0000 0.4724 0.0000 ( 20131 PWs)   bands (ev):

   -24.3671 -24.3644 -24.1918 -24.1174 -24.0508 -23.9195 -23.8520 -23.8475
   -23.7719 -23.7468 -10.9894  -8.7187  -4.6487  -3.0328

          k = 0.0000 0.5249 0.0000 ( 20122 PWs)   bands (ev):

   -24.3742 -24.3712 -24.1905 -24.1186 -24.0464 -23.9243 -23.8517 -23.8463
   -23.7636 -23.7403 -10.7912  -9.0236  -4.7043  -2.8417

          k = 0.0000-0.5774 0.0000 ( 20096 PWs)   bands (ev):

   -24.3766 -24.3735 -24.1900 -24.1190 -24.0448 -23.9260 -23.8517 -23.8459
   -23.7607 -23.7380 -10.7071  -9.1434  -4.7231  -2.7615

          k = 0.0455 0.0787 0.0000 ( 19993 PWs)   bands (ev):

   -24.2308 -24.2233 -24.2106 -24.0996 -24.0958 -23.9341 -23.9316 -23.8694
   -23.8652 -23.8013 -12.2423  -4.7229  -4.2909  -3.5565

          k = 0.0455 0.1312 0.0000 ( 20024 PWs)   bands (ev):

   -24.2512 -24.2371 -24.2097 -24.1013 -24.0925 -23.9178 -23.9122 -23.8731
   -23.8635 -23.8005 -12.1720  -5.3002  -4.2182  -3.7020

          k = 0.0455 0.1837 0.0000 ( 20063 PWs)   bands (ev):

   -24.2753 -24.2558 -24.2077 -24.1037 -24.0879 -23.8986 -23.8882 -23.8784
   -23.8611 -23.7982 -12.0670  -5.8958  -4.1102  -3.8842

          k = 0.0455 0.2362 0.0000 ( 20066 PWs)   bands (ev):

   -24.3003 -24.2763 -24.2051 -24.1065 -24.0819 -23.8851 -23.8802 -23.8631
   -23.8584 -23.7932 -11.9282  -6.4835  -4.0782  -3.9682

          k = 0.0455 0.2887 0.0000 ( 20087 PWs)   bands (ev):

   -24.3242 -24.2964 -24.2022 -24.1095 -24.0749 -23.8929 -23.8660 -23.8554
   -23.8390 -23.7842 -11.7570  -7.0509  -4.2662  -3.7943

          k = 0.0455 0.3412 0.0000 ( 20092 PWs)   bands (ev):

   -24.3458 -24.3147 -24.1993 -24.1124 -24.0673 -23.9013 -23.8575 -23.8525
   -23.8172 -23.7715 -11.5561  -7.5890  -4.4358  -3.5920

          k = 0.0455 0.3936 0.0000 ( 20107 PWs)   bands (ev):

   -24.3640 -24.3303 -24.1965 -24.1151 -24.0596 -23.9098 -23.8533 -23.8499
   -23.7988 -23.7573 -11.3308  -8.0881  -4.5788  -3.3676

          k = 0.0455 0.4461 0.0000 ( 20116 PWs)   bands (ev):

   -24.3783 -24.3426 -24.1942 -24.1172 -24.0524 -23.9176 -23.8517 -23.8477
   -23.7844 -23.7446 -11.0927  -8.5340  -4.6900  -3.1331

          k = 0.0455 0.4986 0.0000 ( 20123 PWs)   bands (ev):

   -24.3880 -24.3510 -24.1925 -24.1187 -24.0468 -23.9237 -23.8512 -23.8462
   -23.7744 -23.7353 -10.8677  -8.8986  -4.7658  -2.9146

          k = 0.0455 0.5511 0.0000 ( 20124 PWs)   bands (ev):

   -24.3929 -24.3552 -24.1916 -24.1195 -24.0436 -23.9271 -23.8511 -23.8455
   -23.7693 -23.7304 -10.7145  -9.1220  -4.8042  -2.7678

          k = 0.0909 0.1575 0.0000 ( 20045 PWs)   bands (ev):

   -24.2752 -24.2473 -24.2101 -24.1034 -24.0885 -23.9015 -23.8920 -23.8776
   -23.8614 -23.7985 -12.0845  -5.8021  -4.1281  -3.8884

          k = 0.0909 0.2099 0.0000 ( 20065 PWs)   bands (ev):

   -24.3011 -24.2617 -24.2091 -24.1062 -24.0830 -23.8838 -23.8836 -23.8702
   -23.8587 -23.7939 -11.9627  -6.3365  -4.1051  -4.0033

          k = 0.0909 0.2624 0.0000 ( 20081 PWs)   bands (ev):

   -24.3267 -24.2778 -24.2071 -24.1092 -24.0762 -23.8913 -23.8676 -23.8557
   -23.8499 -23.7847 -11.8077  -6.8744  -4.3229  -3.8455

          k = 0.0909 0.3149 0.0000 ( 20103 PWs)   bands (ev):

   -24.3504 -24.2937 -24.2046 -24.1123 -24.0685 -23.8998 -23.8569 -23.8527
   -23.8316 -23.7706 -11.6214  -7.3993  -4.5239  -3.6573

          k = 0.0909 0.3674 0.0000 ( 20085 PWs)   bands (ev):

   -24.3711 -24.3081 -24.2019 -24.1153 -24.0604 -23.9087 -23.8517 -23.8498
   -23.8151 -23.7541 -11.4074  -7.8989  -4.6975  -3.4433

          k = 0.0909 0.4199 0.0000 ( 20107 PWs)   bands (ev):

   -24.3880 -24.3201 -24.1995 -24.1178 -24.0523 -23.9174 -23.8497 -23.8473
   -23.8011 -23.7386 -11.1733  -8.3601  -4.8373  -3.2114

          k = 0.0909 0.4724 0.0000 ( 20116 PWs)   bands (ev):

   -24.4004 -24.3290 -24.1975 -24.1197 -24.0453 -23.9249 -23.8493 -23.8454
   -23.7906 -23.7263 -10.9355  -8.7625  -4.9394  -2.9790

          k = 0.0909 0.5249 0.0000 ( 20125 PWs)   bands (ev):

   -24.4080 -24.3345 -24.1963 -24.1209 -24.0404 -23.9302 -23.8493 -23.8443
   -23.7840 -23.7184 -10.7335  -9.0641  -5.0015  -2.7843

          k = 0.0909 0.5774 0.0000 ( 20124 PWs)   bands (ev):

   -24.4105 -24.3364 -24.1958 -24.1213 -24.0386 -23.9321 -23.8494 -23.8438
   -23.7818 -23.7158 -10.6468  -9.1843  -5.0223  -2.7016

          k = 0.1364 0.2362 0.0000 ( 20083 PWs)   bands (ev):

   -24.3275 -24.2701 -24.2100 -24.1092 -24.0765 -23.8909 -23.8677 -23.8558
   -23.8543 -23.7847 -11.8246  -6.8091  -4.3561  -3.8627

          k = 0.1364 0.2887 0.0000 ( 20097 PWs)   bands (ev):

   -24.3528 -24.2803 -24.2096 -24.1125 -24.0689 -23.8992 -23.8543 -23.8526
   -23.8420 -23.7697 -11.6541  -7.2906  -4.6003  -3.6902

          k = 0.1364 0.3412 0.0000 ( 20066 PWs)   bands (ev):

   -24.3755 -24.2909 -24.2083 -24.1157 -24.0604 -23.9085 -23.8495 -23.8476
   -23.8293 -23.7516 -11.4538  -7.7653  -4.8177  -3.4891

          k = 0.1364 0.3936 0.0000 ( 20096 PWs)   bands (ev):

   -24.3946 -24.3006 -24.2066 -24.1186 -24.0515 -23.9180 -23.8467 -23.8458
   -23.8166 -23.7338 -11.2284  -8.2193  -4.9982  -3.2651

          k = 0.1364 0.4461 0.0000 ( 20114 PWs)   bands (ev):

   -24.4096 -24.3085 -24.2049 -24.1209 -24.0430 -23.9269 -23.8458 -23.8444
   -23.8061 -23.7188 -10.9881  -8.6360  -5.1364  -3.0288

          k = 0.1364 0.4986 0.0000 ( 20105 PWs)   bands (ev):

   -24.4198 -24.3141 -24.2036 -24.1226 -24.0361 -23.9343 -23.8463 -23.8427
   -23.7987 -23.7082 -10.7573  -8.9867  -5.2296  -2.8048

          k = 0.1364 0.5511 0.0000 ( 20102 PWs)   bands (ev):

   -24.4250 -24.3170 -24.2029 -24.1235 -24.0320 -23.9385 -23.8466 -23.8419
   -23.7948 -23.7026 -10.5955  -9.2091  -5.2765  -2.6499

          k = 0.1818 0.3149 0.0000 ( 20081 PWs)   bands (ev):

   -24.3769 -24.2839 -24.2115 -24.1159 -24.0603 -23.9085 -23.8493 -23.8417
   -23.8388 -23.7506 -11.4693  -7.7163  -4.8668  -3.5045

          k = 0.1818 0.3674 0.0000 ( 20095 PWs)   bands (ev):

   -24.3980 -24.2882 -24.2125 -24.1191 -24.0508 -23.9185 -23.8462 -23.8395
   -23.8291 -23.7312 -11.2564  -8.1386  -5.0989  -3.2923

          k = 0.1818 0.4199 0.0000 ( 20114 PWs)   bands (ev):

   -24.4152 -24.2924 -24.2126 -24.1219 -24.0411 -23.9287 -23.8435 -23.8405
   -23.8192 -23.7140 -11.0213  -8.5442  -5.2851  -3.0603

          k = 0.1818 0.4724 0.0000 ( 20116 PWs)   bands (ev):

   -24.4279 -24.2960 -24.2124 -24.1241 -24.0320 -23.9382 -23.8418 -23.8414
   -23.8117 -23.7008 -10.7780  -8.9134  -5.4202  -2.8228

          k = 0.1818 0.5249 0.0000 ( 20112 PWs)   bands (ev):

   -24.4357 -24.2984 -24.2120 -24.1254 -24.0252 -23.9453 -23.8427 -23.8401
   -23.8070 -23.6925 -10.5629  -9.2056  -5.5017  -2.6155

          k = 0.1818 0.5774 0.0000 ( 20127 PWs)   bands (ev):

   -24.4383 -24.2992 -24.2119 -24.1259 -24.0225 -23.9480 -23.8431 -23.8397
   -23.8054 -23.6897 -10.4654  -9.3292  -5.5290  -2.5226

          k = 0.2273 0.3936 0.0000 ( 20097 PWs)   bands (ev):

   -24.4171 -24.2859 -24.2163 -24.1223 -24.0403 -23.9295 -23.8432 -23.8358
   -23.8266 -23.7124 -11.0326  -8.5103  -5.3401  -3.0710

          k = 0.2273 0.4461 0.0000 ( 20131 PWs)   bands (ev):

   -24.4320 -24.2841 -24.2194 -24.1249 -24.0295 -23.9406 -23.8407 -23.8366
   -23.8214 -23.6970 -10.7898  -8.8686  -5.5276  -2.8331

          k = 0.2273 0.4986 0.0000 ( 20112 PWs)   bands (ev):

   -24.4422 -24.2830 -24.2215 -24.1268 -24.0197 -23.9506 -23.8389 -23.8379
   -23.8171 -23.6862 -10.5463  -9.1915  -5.6547  -2.5971

          k = 0.2273 0.5511 0.0000 ( 20124 PWs)   bands (ev):

   -24.4474 -24.2825 -24.2225 -24.1277 -24.0132 -23.9573 -23.8387 -23.8380
   -23.8149 -23.6806 -10.3594  -9.4188  -5.7188  -2.4181

          k = 0.2727 0.4724 0.0000 ( 20109 PWs)   bands (ev):

   -24.4445 -24.2763 -24.2262 -24.1273 -24.0176 -23.9528 -23.8385 -23.8346
   -23.8222 -23.6840 -10.5414  -9.1842  -5.7088  -2.5914

          k = 0.2727 0.5249 0.0000 ( 20094 PWs)   bands (ev):

   -24.4521 -24.2699 -24.2319 -24.1287 -24.0066 -23.9639 -23.8371 -23.8343
   -23.8220 -23.6759 -10.2979  -9.4685  -5.8203  -2.3569

          k = 0.2727 0.5774 0.0000 ( 20103 PWs)   bands (ev):

   -24.4546 -24.2673 -24.2343 -24.1293 -24.0011 -23.9694 -23.8366 -23.8343
   -23.8218 -23.6732 -10.1618  -9.6183  -5.8578  -2.2271

          k = 0.3182 0.5511 0.0000 ( 20107 PWs)   bands (ev):

   -24.4571 -24.2576 -24.2428 -24.1298 -23.9934 -23.9772 -23.8361 -23.8309
   -23.8261 -23.6707 -10.0451  -9.7350  -5.9056  -2.1144

     highest occupied level (ev):    -2.1144

!    total energy              =    -326.39056225 Ry
     estimated scf accuracy    <       0.00000088 Ry

     The total energy is the sum of the following terms:
     one-electron contribution =    -882.71019972 Ry
     hartree contribution      =     448.40816536 Ry
     xc contribution           =     -95.06683163 Ry
     ewald contribution        =     202.97830373 Ry

     convergence has been achieved in   7 iterations

     Writing output data file ../tmp/stanene.save/

     init_run     :      3.99s CPU      4.24s WALL (       1 calls)
     electrons    :     73.68s CPU     76.04s WALL (       1 calls)

     Called by init_run:
     wfcinit      :      3.54s CPU      3.77s WALL (       1 calls)
     potinit      :      0.09s CPU      0.10s WALL (       1 calls)
     hinit0       :      0.18s CPU      0.19s WALL (       1 calls)

     Called by electrons:
     c_bands      :     63.74s CPU     65.39s WALL (       7 calls)
     sum_band     :      8.84s CPU      9.42s WALL (       7 calls)
     v_of_rho     :      0.30s CPU      0.33s WALL (       8 calls)
     newd         :      0.86s CPU      0.97s WALL (       8 calls)
     mix_rho      :      0.07s CPU      0.07s WALL (       7 calls)

     Called by c_bands:
     init_us_2    :      0.76s CPU      0.78s WALL (     780 calls)
     cegterg      :     61.00s CPU     62.63s WALL (     364 calls)

     Called by *egterg:
     cdiaghg      :      0.71s CPU      0.71s WALL (    1342 calls)
     h_psi        :     41.81s CPU     43.57s WALL (    1394 calls)
     s_psi        :      3.01s CPU      3.05s WALL (    1394 calls)
     g_psi        :      0.28s CPU      0.28s WALL (     978 calls)

     Called by h_psi:
     h_psi:calbec :      5.25s CPU      5.42s WALL (    1394 calls)
     vloc_psi     :     33.27s CPU     34.79s WALL (    1394 calls)
     add_vuspsi   :      3.15s CPU      3.21s WALL (    1394 calls)

     General routines
     calbec       :      6.95s CPU      7.19s WALL (    1758 calls)
     fft          :      0.24s CPU      0.26s WALL (      88 calls)
     ffts         :      0.01s CPU      0.01s WALL (       7 calls)
     fftw         :     35.47s CPU     37.01s WALL (   36886 calls)

     Parallel routines
     fft_scatt_xy :      3.33s CPU      3.53s WALL (   36981 calls)
     fft_scatt_yz :     18.21s CPU     18.85s WALL (   36981 calls)

     PWSCF        :   1m17.80s CPU   1m20.64s WALL


   This run was terminated on:  21:13:52  20Jan2024            

=------------------------------------------------------------------------------=
   JOB DONE.
=------------------------------------------------------------------------------=
