
     Program PWSCF v.6.7MaX starts on 20Jan2024 at 21: 7:45 

     This program is part of the open-source Quantum ESPRESSO suite
     for quantum simulation of materials; please cite
         "P. Giannozzi et al., J. Phys.:Condens. Matter 21 395502 (2009);
         "P. Giannozzi et al., J. Phys.:Condens. Matter 29 465901 (2017);
          URL http://www.quantum-espresso.org", 
     in publications or presentations arising from this work. More details at
     http://www.quantum-espresso.org/quote

     Parallel version (MPI), running on     6 processors

     MPI processes distributed on     1 nodes
     R & G space division:  proc/nbgrp/npool/nimage =       6
     Waiting for input...
     Reading input from standard input

     Current dimensions of program PWSCF are:
     Max number of different atomic species (ntypx) = 10
     Max number of k-points (npk) =  40000
     Max angular momentum in pseudopotentials (lmaxx) =  3

     Subspace diagonalization in iterative solution of the eigenvalue problem:
     one sub-group per band group will be used
     scalapack distributed-memory algorithm (size of sub-group:  2*  2 procs)


     Parallelization info
     --------------------
     sticks:   dense  smooth     PW     G-vecs:    dense   smooth      PW
     Min         214     214     61                26776    26776    4007
     Max         215     215     62                26799    26799    4017
     Sum        1285    1285    367               160699   160699   24069



     bravais-lattice index     =            4
     lattice parameter (alat)  =       8.8439  a.u.
     unit-cell volume          =    2560.0529 (a.u.)^3
     number of atoms/cell      =            2
     number of atomic types    =            1
     number of electrons       =        28.00
     number of Kohn-Sham states=           14
     kinetic-energy cutoff     =      60.0000  Ry
     charge density cutoff     =     240.0000  Ry
     scf convergence threshold =      1.0E-06
     mixing beta               =       0.7000
     number of iterations used =            8  plain     mixing
     Exchange-correlation= SLA  PW   PBE  PBE
                           (   1   4   3   4   0   0   0)

     celldm(1)=   8.843918  celldm(2)=   0.000000  celldm(3)=   4.273504
     celldm(4)=   0.000000  celldm(5)=   0.000000  celldm(6)=   0.000000

     crystal axes: (cart. coord. in units of alat)
               a(1) = (   1.000000   0.000000   0.000000 )  
               a(2) = (  -0.500000   0.866025   0.000000 )  
               a(3) = (   0.000000   0.000000   4.273504 )  

     reciprocal axes: (cart. coord. in units 2 pi/alat)
               b(1) = (  1.000000  0.577350 -0.000000 )  
               b(2) = (  0.000000  1.154701  0.000000 )  
               b(3) = (  0.000000 -0.000000  0.234000 )  


     PseudoPot. # 1 for Sn read from file:
     ../pseudo/Sn_pbe_v1.uspp.F.UPF
     MD5 check sum: 4cf58ce39ec5d5d420df3dd08604eb00
     Pseudo is Ultrasoft + core correction, Zval = 14.0
     Generated by new atomic code, or converted to UPF format
     Using radial grid of  891 points,  6 beta functions with: 
                l(1) =   0
                l(2) =   0
                l(3) =   1
                l(4) =   1
                l(5) =   2
                l(6) =   2
     Q(r) pseudized with  6 coefficients,  rinner =    1.200   1.200   1.200
                                                       1.200   1.200

     atomic species   valence    mass     pseudopotential
        Sn            14.00   118.71000     Sn( 1.00)

     24 Sym. Ops., with inversion, found



   Cartesian axes

     site n.     atom                  positions (alat units)
         1           Sn  tau(   1) = (   0.0000000   0.5773503   2.1367521  )
         2           Sn  tau(   2) = (   0.5000000   0.2886751   2.1367521  )

     number of k points=    37
                       cart. coord. in units 2pi/alat
        k(    1) = (   0.0000000   0.0000000   0.0000000), wk =   0.0061728
        k(    2) = (   0.0000000   0.0641500   0.0000000), wk =   0.0370370
        k(    3) = (   0.0000000   0.1283001   0.0000000), wk =   0.0370370
        k(    4) = (   0.0000000   0.1924501   0.0000000), wk =   0.0370370
        k(    5) = (   0.0000000   0.2566001   0.0000000), wk =   0.0370370
        k(    6) = (   0.0000000   0.3207501   0.0000000), wk =   0.0370370
        k(    7) = (   0.0000000   0.3849002   0.0000000), wk =   0.0370370
        k(    8) = (   0.0000000   0.4490502   0.0000000), wk =   0.0370370
        k(    9) = (   0.0000000   0.5132002   0.0000000), wk =   0.0370370
        k(   10) = (   0.0000000  -0.5773503   0.0000000), wk =   0.0185185
        k(   11) = (   0.0555556   0.0962250   0.0000000), wk =   0.0370370
        k(   12) = (   0.0555556   0.1603751   0.0000000), wk =   0.0740741
        k(   13) = (   0.0555556   0.2245251   0.0000000), wk =   0.0740741
        k(   14) = (   0.0555556   0.2886751   0.0000000), wk =   0.0740741
        k(   15) = (   0.0555556   0.3528252   0.0000000), wk =   0.0740741
        k(   16) = (   0.0555556   0.4169752   0.0000000), wk =   0.0740741
        k(   17) = (   0.0555556   0.4811252   0.0000000), wk =   0.0740741
        k(   18) = (   0.0555556   0.5452753   0.0000000), wk =   0.0740741
        k(   19) = (   0.1111111   0.1924501   0.0000000), wk =   0.0370370
        k(   20) = (   0.1111111   0.2566001   0.0000000), wk =   0.0740741
        k(   21) = (   0.1111111   0.3207501   0.0000000), wk =   0.0740741
        k(   22) = (   0.1111111   0.3849002   0.0000000), wk =   0.0740741
        k(   23) = (   0.1111111   0.4490502   0.0000000), wk =   0.0740741
        k(   24) = (   0.1111111   0.5132002   0.0000000), wk =   0.0740741
        k(   25) = (   0.1111111   0.5773503   0.0000000), wk =   0.0370370
        k(   26) = (   0.1666667   0.2886751   0.0000000), wk =   0.0370370
        k(   27) = (   0.1666667   0.3528252   0.0000000), wk =   0.0740741
        k(   28) = (   0.1666667   0.4169752   0.0000000), wk =   0.0740741
        k(   29) = (   0.1666667   0.4811252   0.0000000), wk =   0.0740741
        k(   30) = (   0.1666667   0.5452753   0.0000000), wk =   0.0740741
        k(   31) = (   0.2222222   0.3849002   0.0000000), wk =   0.0370370
        k(   32) = (   0.2222222   0.4490502   0.0000000), wk =   0.0740741
        k(   33) = (   0.2222222   0.5132002   0.0000000), wk =   0.0740741
        k(   34) = (   0.2222222   0.5773503   0.0000000), wk =   0.0370370
        k(   35) = (   0.2777778   0.4811252   0.0000000), wk =   0.0370370
        k(   36) = (   0.2777778   0.5452753   0.0000000), wk =   0.0740741
        k(   37) = (   0.3333333   0.5773503   0.0000000), wk =   0.0123457

     Dense  grid:   160699 G-vectors     FFT dimensions: (  45,  45, 192)

     Estimated max dynamical RAM per process >     122.69 MB

     Estimated total dynamical RAM >     736.13 MB

     Initial potential from superposition of free atoms

     starting charge   25.99991, renormalised to   28.00000

     negative rho (up, down):  5.017E-03 0.000E+00
     Starting wfcs are   18 randomized atomic wfcs

     total cpu time spent up to now is        2.9 secs

     Self-consistent Calculation

     iteration #  1     ecut=    60.00 Ry     beta= 0.70
     Davidson diagonalization with overlap
     ethr =  1.00E-02,  avg # of iterations =  2.0

     negative rho (up, down):  3.311E-03 0.000E+00

     total cpu time spent up to now is       11.1 secs

     total energy              =    -325.49377819 Ry
     estimated scf accuracy    <       2.41404331 Ry

     iteration #  2     ecut=    60.00 Ry     beta= 0.70
     Davidson diagonalization with overlap
     ethr =  8.62E-03,  avg # of iterations =  2.0

     negative rho (up, down):  3.601E-03 0.000E+00

     total cpu time spent up to now is       18.9 secs

     total energy              =    -326.34778200 Ry
     estimated scf accuracy    <       0.29507505 Ry

     iteration #  3     ecut=    60.00 Ry     beta= 0.70
     Davidson diagonalization with overlap
     ethr =  1.05E-03,  avg # of iterations =  2.0

     negative rho (up, down):  3.777E-03 0.000E+00

     total cpu time spent up to now is       27.2 secs

     total energy              =    -326.38749121 Ry
     estimated scf accuracy    <       0.00612750 Ry

     iteration #  4     ecut=    60.00 Ry     beta= 0.70
     Davidson diagonalization with overlap
     ethr =  2.19E-05,  avg # of iterations =  3.1

     negative rho (up, down):  3.698E-03 0.000E+00

     total cpu time spent up to now is       36.1 secs

     total energy              =    -326.39006213 Ry
     estimated scf accuracy    <       0.00102184 Ry

     iteration #  5     ecut=    60.00 Ry     beta= 0.70
     Davidson diagonalization with overlap
     ethr =  3.65E-06,  avg # of iterations =  2.2

     negative rho (up, down):  3.680E-03 0.000E+00

     total cpu time spent up to now is       44.0 secs

     total energy              =    -326.39032958 Ry
     estimated scf accuracy    <       0.00001362 Ry

     iteration #  6     ecut=    60.00 Ry     beta= 0.70
     Davidson diagonalization with overlap
     ethr =  4.86E-08,  avg # of iterations =  4.8

     negative rho (up, down):  3.680E-03 0.000E+00

     total cpu time spent up to now is       52.6 secs

     total energy              =    -326.39048321 Ry
     estimated scf accuracy    <       0.00000150 Ry

     iteration #  7     ecut=    60.00 Ry     beta= 0.70
     Davidson diagonalization with overlap
     ethr =  5.36E-09,  avg # of iterations =  2.3

     negative rho (up, down):  3.678E-03 0.000E+00

     total cpu time spent up to now is       58.5 secs

     total energy              =    -326.39048296 Ry
     estimated scf accuracy    <       0.00000149 Ry

     iteration #  8     ecut=    60.00 Ry     beta= 0.70
     Davidson diagonalization with overlap
     ethr =  5.32E-09,  avg # of iterations =  1.0

     negative rho (up, down):  3.681E-03 0.000E+00

     total cpu time spent up to now is       64.2 secs

     End of self-consistent calculation

          k = 0.0000 0.0000 0.0000 ( 20001 PWs)   bands (ev):

   -24.2073 -24.2073 -24.2066 -24.0940 -24.0940 -23.9439 -23.9439 -23.8623
   -23.8623 -23.7976 -12.2936  -4.3452  -3.7592  -3.4348

          k = 0.0000 0.0642 0.0000 ( 20001 PWs)   bands (ev):

   -24.2154 -24.2151 -24.2062 -24.0946 -24.0927 -23.9362 -23.9351 -23.8637
   -23.8616 -23.7974 -12.2673  -4.3987  -4.3179  -3.4938

          k = 0.0000 0.1283 0.0000 ( 20015 PWs)   bands (ev):

   -24.2361 -24.2358 -24.2044 -24.0966 -24.0892 -23.9167 -23.9121 -23.8678
   -23.8597 -23.7966 -12.1885  -5.1752  -4.2363  -3.6506

          k = 0.0000 0.1925 0.0000 ( 20061 PWs)   bands (ev):

   -24.2630 -24.2630 -24.2017 -24.0995 -24.0834 -23.8926 -23.8815 -23.8743
   -23.8568 -23.7940 -12.0578  -5.9381  -4.1018  -3.8621

          k = 0.0000 0.2566 0.0000 ( 20053 PWs)   bands (ev):

   -24.2916 -24.2911 -24.1983 -24.1030 -24.0759 -23.8828 -23.8711 -23.8533
   -23.8491 -23.7874 -11.8768  -6.6700  -4.0877  -3.9170

          k = 0.0000 0.3208 0.0000 ( 20081 PWs)   bands (ev):

   -24.3183 -24.3170 -24.1947 -24.1066 -24.0671 -23.8927 -23.8571 -23.8498
   -23.8185 -23.7755 -11.6489  -7.3587  -4.2988  -3.6863

          k = 0.0000 0.3849 0.0000 ( 20131 PWs)   bands (ev):

   -24.3408 -24.3388 -24.1912 -24.1098 -24.0578 -23.9030 -23.8504 -23.8465
   -23.7923 -23.7603 -11.3811  -7.9906  -4.4770  -3.4187

          k = 0.0000 0.4491 0.0000 ( 20147 PWs)   bands (ev):

   -24.3578 -24.3551 -24.1883 -24.1125 -24.0492 -23.9124 -23.8481 -23.8439
   -23.7724 -23.7462 -11.0912  -8.5437  -4.6108  -3.1330

          k = 0.0000 0.5132 0.0000 ( 20126 PWs)   bands (ev):

   -24.3684 -24.3652 -24.1864 -24.1141 -24.0429 -23.9192 -23.8475 -23.8422
   -23.7600 -23.7367 -10.8270  -8.9670  -4.6936  -2.8770

          k = 0.0000-0.5774 0.0000 ( 20096 PWs)   bands (ev):

   -24.3719 -24.3686 -24.1858 -24.1147 -24.0406 -23.9217 -23.8475 -23.8416
   -23.7558 -23.7333 -10.7055  -9.1418  -4.7215  -2.7610

          k = 0.0556 0.0962 0.0000 ( 19981 PWs)   bands (ev):

   -24.2344 -24.2233 -24.2063 -24.0960 -24.0903 -23.9228 -23.9191 -23.8665
   -23.8603 -23.7969 -12.2147  -4.9649  -4.2634  -3.6124

          k = 0.0556 0.1604 0.0000 ( 20052 PWs)   bands (ev):

   -24.2622 -24.2417 -24.2049 -24.0985 -24.0855 -23.9013 -23.8928 -23.8719
   -23.8578 -23.7951 -12.1099  -5.6633  -4.1554  -3.8187

          k = 0.0556 0.2245 0.0000 ( 20071 PWs)   bands (ev):

   -24.2930 -24.2652 -24.2021 -24.1018 -24.0787 -23.8796 -23.8784 -23.8630
   -23.8545 -23.7899 -11.9540  -6.3744  -4.0591  -3.9955

          k = 0.0556 0.2887 0.0000 ( 20085 PWs)   bands (ev):

   -24.3227 -24.2890 -24.1987 -24.1055 -24.0703 -23.8890 -23.8607 -23.8509
   -23.8344 -23.7787 -11.7491  -7.0636  -4.2951  -3.7873

          k = 0.0556 0.3528 0.0000 ( 20094 PWs)   bands (ev):

   -24.3489 -24.3104 -24.1951 -24.1091 -24.0608 -23.8995 -23.8512 -23.8473
   -23.8093 -23.7619 -11.4999  -7.7116  -4.5027  -3.5369

          k = 0.0556 0.4170 0.0000 ( 20103 PWs)   bands (ev):

   -24.3698 -24.3277 -24.1919 -24.1121 -24.0514 -23.9097 -23.8476 -23.8443
   -23.7891 -23.7442 -11.2175  -8.2991  -4.6676  -3.2566

          k = 0.0556 0.4811 0.0000 ( 20133 PWs)   bands (ev):

   -24.3843 -24.3397 -24.1894 -24.1144 -24.0435 -23.9183 -23.8467 -23.8421
   -23.7749 -23.7304 -10.9302  -8.7925  -4.7815  -2.9758

          k = 0.0556 0.5453 0.0000 ( 20120 PWs)   bands (ev):

   -24.3918 -24.3459 -24.1881 -24.1155 -24.0388 -23.9234 -23.8466 -23.8409
   -23.7676 -23.7229 -10.7163  -9.1102  -4.8395  -2.7703

          k = 0.1111 0.1925 0.0000 ( 20045 PWs)   bands (ev):

   -24.2935 -24.2534 -24.2057 -24.1016 -24.0795 -23.8811 -23.8786 -23.8685
   -23.8548 -23.7904 -11.9797  -6.2590  -4.0835  -4.0219

          k = 0.1111 0.2566 0.0000 ( 20084 PWs)   bands (ev):

   -24.3253 -24.2694 -24.2046 -24.1053 -24.0714 -23.8876 -23.8614 -23.8511
   -23.8463 -23.7789 -11.7994  -6.8850  -4.3688  -3.8382

          k = 0.1111 0.3208 0.0000 ( 20100 PWs)   bands (ev):

   -24.3546 -24.2862 -24.2021 -24.1092 -24.0618 -23.8981 -23.8489 -23.8473
   -23.8271 -23.7598 -11.5720  -7.5038  -4.6303  -3.6087

          k = 0.1111 0.3849 0.0000 ( 20089 PWs)   bands (ev):

   -24.3791 -24.3014 -24.1993 -24.1128 -24.0514 -23.9093 -23.8444 -23.8438
   -23.8093 -23.7385 -11.3042  -8.0901  -4.8459  -3.3415

          k = 0.1111 0.4491 0.0000 ( 20112 PWs)   bands (ev):

   -24.3975 -24.3132 -24.1967 -24.1156 -24.0417 -23.9198 -23.8436 -23.8411
   -23.7950 -23.7205 -11.0124  -8.6161  -5.0050  -3.0543

          k = 0.1111 0.5132 0.0000 ( 20120 PWs)   bands (ev):

   -24.4089 -24.3206 -24.1949 -24.1174 -24.0343 -23.9277 -23.8439 -23.8393
   -23.7859 -23.7087 -10.7424  -9.0292  -5.1022  -2.7928

          k = 0.1111 0.5774 0.0000 ( 20127 PWs)   bands (ev):

   -24.4127 -24.3231 -24.1943 -24.1180 -24.0314 -23.9307 -23.8441 -23.8387
   -23.7828 -23.7046 -10.6154  -9.2044  -5.1349  -2.6715

          k = 0.1667 0.2887 0.0000 ( 20089 PWs)   bands (ev):

   -24.3565 -24.2758 -24.2065 -24.1094 -24.0619 -23.8979 -23.8472 -23.8445
   -23.8373 -23.7589 -11.5962  -7.4243  -4.6956  -3.6328

          k = 0.1667 0.3528 0.0000 ( 20080 PWs)   bands (ev):

   -24.3838 -24.2836 -24.2068 -24.1134 -24.0509 -23.9096 -23.8433 -23.8375
   -23.8258 -23.7352 -11.3483  -7.9640  -4.9838  -3.3848

          k = 0.1667 0.4170 0.0000 ( 20105 PWs)   bands (ev):

   -24.4057 -24.2911 -24.2061 -24.1169 -24.0394 -23.9218 -23.8400 -23.8379
   -23.8126 -23.7137 -11.0649  -8.4791  -5.2094  -3.1044

          k = 0.1667 0.4811 0.0000 ( 20107 PWs)   bands (ev):

   -24.4208 -24.2969 -24.2051 -24.1194 -24.0290 -23.9327 -23.8391 -23.8375
   -23.8029 -23.6980 -10.7702  -8.9342  -5.3626  -2.8169

          k = 0.1667 0.5453 0.0000 ( 20111 PWs)   bands (ev):

   -24.4286 -24.3000 -24.2044 -24.1207 -24.0224 -23.9396 -23.8400 -23.8362
   -23.7979 -23.6897 -10.5401  -9.2464  -5.4398  -2.5958

          k = 0.2222 0.3849 0.0000 ( 20093 PWs)   bands (ev):

   -24.4084 -24.2816 -24.2112 -24.1174 -24.0384 -23.9227 -23.8395 -23.8316
   -23.8230 -23.7114 -11.0829  -8.4263  -5.2900  -3.1216

          k = 0.2222 0.4491 0.0000 ( 20127 PWs)   bands (ev):

   -24.4270 -24.2803 -24.2145 -24.1206 -24.0254 -23.9361 -23.8364 -23.8328
   -23.8160 -23.6923 -10.7875  -8.8699  -5.5192  -2.8319

          k = 0.2222 0.5132 0.0000 ( 20115 PWs)   bands (ev):

   -24.4385 -24.2797 -24.2164 -24.1227 -24.0142 -23.9477 -23.8344 -23.8344
   -23.8109 -23.6801 -10.4971  -9.2525  -5.6594  -2.5510

          k = 0.2222 0.5774 0.0000 ( 20115 PWs)   bands (ev):

   -24.4424 -24.2796 -24.2169 -24.1234 -24.0092 -23.9528 -23.8350 -23.8337
   -23.8091 -23.6759 -10.3440  -9.4369  -5.7065  -2.4049

          k = 0.2778 0.4811 0.0000 ( 20117 PWs)   bands (ev):

   -24.4418 -24.2699 -24.2233 -24.1234 -24.0107 -23.9512 -23.8338 -23.8301
   -23.8178 -23.6768 -10.4837  -9.2499  -5.7391  -2.5367

          k = 0.2778 0.5453 0.0000 ( 20096 PWs)   bands (ev):

   -24.4494 -24.2623 -24.2300 -24.1249 -23.9980 -23.9640 -23.8324 -23.8295
   -23.8180 -23.6687 -10.2007  -9.5716  -5.8522  -2.2647

          k = 0.3333 0.5774 0.0000 ( 20085 PWs)   bands (ev):

   -24.4531 -24.2456 -24.2456 -24.1257 -23.9810 -23.9810 -23.8316 -23.8241
   -23.8241 -23.6648  -9.8894  -9.8894  -5.9187  -1.9670

     highest occupied level (ev):    -1.9670

!    total energy              =    -326.39048275 Ry
     estimated scf accuracy    <       0.00000098 Ry

     The total energy is the sum of the following terms:
     one-electron contribution =    -882.70398653 Ry
     hartree contribution      =     448.40092502 Ry
     xc contribution           =     -95.06572498 Ry
     ewald contribution        =     202.97830373 Ry

     convergence has been achieved in   8 iterations

     Writing output data file ../tmp/stanene.save/

     init_run     :      2.72s CPU      2.84s WALL (       1 calls)
     electrons    :     59.04s CPU     61.35s WALL (       1 calls)

     Called by init_run:
     wfcinit      :      2.28s CPU      2.40s WALL (       1 calls)
     potinit      :      0.11s CPU      0.11s WALL (       1 calls)
     hinit0       :      0.18s CPU      0.18s WALL (       1 calls)

     Called by electrons:
     c_bands      :     50.52s CPU     52.17s WALL (       8 calls)
     sum_band     :      7.36s CPU      7.88s WALL (       8 calls)
     v_of_rho     :      0.36s CPU      0.38s WALL (       9 calls)
     newd         :      0.83s CPU      0.94s WALL (       9 calls)
     mix_rho      :      0.07s CPU      0.07s WALL (       8 calls)

     Called by c_bands:
     init_us_2    :      0.61s CPU      0.62s WALL (     629 calls)
     cegterg      :     48.17s CPU     49.79s WALL (     296 calls)

     Called by *egterg:
     cdiaghg      :      0.53s CPU      0.53s WALL (    1015 calls)
     h_psi        :     33.04s CPU     34.71s WALL (    1052 calls)
     s_psi        :      2.42s CPU      2.44s WALL (    1052 calls)
     g_psi        :      0.21s CPU      0.21s WALL (     719 calls)

     Called by h_psi:
     h_psi:calbec :      4.02s CPU      4.18s WALL (    1052 calls)
     vloc_psi     :     26.35s CPU     27.81s WALL (    1052 calls)
     add_vuspsi   :      2.55s CPU      2.60s WALL (    1052 calls)

     General routines
     calbec       :      5.43s CPU      5.63s WALL (    1348 calls)
     fft          :      0.25s CPU      0.25s WALL (      99 calls)
     ffts         :      0.01s CPU      0.01s WALL (       8 calls)
     fftw         :     28.21s CPU     29.67s WALL (   28766 calls)

     Parallel routines
     fft_scatt_xy :      2.61s CPU      2.79s WALL (   28873 calls)
     fft_scatt_yz :     14.76s CPU     15.40s WALL (   28873 calls)

     PWSCF        :   1m 1.88s CPU   1m 4.48s WALL


   This run was terminated on:  21: 8:49  20Jan2024            

=------------------------------------------------------------------------------=
   JOB DONE.
=------------------------------------------------------------------------------=
