
     Program PWSCF v.6.7MaX starts on 20Jan2024 at 21: 0:13 

     This program is part of the open-source Quantum ESPRESSO suite
     for quantum simulation of materials; please cite
         "P. Giannozzi et al., J. Phys.:Condens. Matter 21 395502 (2009);
         "P. Giannozzi et al., J. Phys.:Condens. Matter 29 465901 (2017);
          URL http://www.quantum-espresso.org", 
     in publications or presentations arising from this work. More details at
     http://www.quantum-espresso.org/quote

     Parallel version (MPI), running on     6 processors

     MPI processes distributed on     1 nodes
     R & G space division:  proc/nbgrp/npool/nimage =       6
     Waiting for input...
     Reading input from standard input

     Current dimensions of program PWSCF are:
     Max number of different atomic species (ntypx) = 10
     Max number of k-points (npk) =  40000
     Max angular momentum in pseudopotentials (lmaxx) =  3

     Subspace diagonalization in iterative solution of the eigenvalue problem:
     one sub-group per band group will be used
     scalapack distributed-memory algorithm (size of sub-group:  2*  2 procs)


     Parallelization info
     --------------------
     sticks:   dense  smooth     PW     G-vecs:    dense   smooth      PW
     Min         214     214     60                26776    26776    3932
     Max         215     215     61                26799    26799    3947
     Sum        1285    1285    361               160699   160699   23631



     bravais-lattice index     =            4
     lattice parameter (alat)  =       8.8439  a.u.
     unit-cell volume          =    2560.0529 (a.u.)^3
     number of atoms/cell      =            2
     number of atomic types    =            1
     number of electrons       =        28.00
     number of Kohn-Sham states=           14
     kinetic-energy cutoff     =      60.0000  Ry
     charge density cutoff     =     240.0000  Ry
     scf convergence threshold =      1.0E-06
     mixing beta               =       0.7000
     number of iterations used =            8  plain     mixing
     Exchange-correlation= SLA  PW   PBE  PBE
                           (   1   4   3   4   0   0   0)

     celldm(1)=   8.843918  celldm(2)=   0.000000  celldm(3)=   4.273504
     celldm(4)=   0.000000  celldm(5)=   0.000000  celldm(6)=   0.000000

     crystal axes: (cart. coord. in units of alat)
               a(1) = (   1.000000   0.000000   0.000000 )  
               a(2) = (  -0.500000   0.866025   0.000000 )  
               a(3) = (   0.000000   0.000000   4.273504 )  

     reciprocal axes: (cart. coord. in units 2 pi/alat)
               b(1) = (  1.000000  0.577350 -0.000000 )  
               b(2) = (  0.000000  1.154701  0.000000 )  
               b(3) = (  0.000000 -0.000000  0.234000 )  


     PseudoPot. # 1 for Sn read from file:
     ../pseudo/Sn_pbe_v1.uspp.F.UPF
     MD5 check sum: 4cf58ce39ec5d5d420df3dd08604eb00
     Pseudo is Ultrasoft + core correction, Zval = 14.0
     Generated by new atomic code, or converted to UPF format
     Using radial grid of  891 points,  6 beta functions with: 
                l(1) =   0
                l(2) =   0
                l(3) =   1
                l(4) =   1
                l(5) =   2
                l(6) =   2
     Q(r) pseudized with  6 coefficients,  rinner =    1.200   1.200   1.200
                                                       1.200   1.200

     atomic species   valence    mass     pseudopotential
        Sn            14.00   118.71000     Sn( 1.00)

     24 Sym. Ops., with inversion, found



   Cartesian axes

     site n.     atom                  positions (alat units)
         1           Sn  tau(   1) = (   0.0000000   0.5773503   2.1367521  )
         2           Sn  tau(   2) = (   0.5000000   0.2886751   2.1367521  )

     number of k points=     8
                       cart. coord. in units 2pi/alat
        k(    1) = (   0.0000000   0.0000000   0.0000000), wk =   0.0408163
        k(    2) = (   0.0000000   0.1649572   0.0000000), wk =   0.2448980
        k(    3) = (   0.0000000   0.3299144   0.0000000), wk =   0.2448980
        k(    4) = (   0.0000000   0.4948717   0.0000000), wk =   0.2448980
        k(    5) = (   0.1428571   0.2474358   0.0000000), wk =   0.2448980
        k(    6) = (   0.1428571   0.4123930   0.0000000), wk =   0.4897959
        k(    7) = (   0.1428571   0.5773503   0.0000000), wk =   0.2448980
        k(    8) = (   0.2857143   0.4948717   0.0000000), wk =   0.2448980

     Dense  grid:   160699 G-vectors     FFT dimensions: (  45,  45, 192)

     Estimated max dynamical RAM per process >     101.95 MB

     Estimated total dynamical RAM >     611.68 MB

     Initial potential from superposition of free atoms

     starting charge   25.99991, renormalised to   28.00000

     negative rho (up, down):  5.017E-03 0.000E+00
     Starting wfcs are   18 randomized atomic wfcs

     total cpu time spent up to now is        1.2 secs

     Self-consistent Calculation

     iteration #  1     ecut=    60.00 Ry     beta= 0.70
     Davidson diagonalization with overlap
     ethr =  1.00E-02,  avg # of iterations =  2.0

     negative rho (up, down):  3.315E-03 0.000E+00

     total cpu time spent up to now is        3.3 secs

     total energy              =    -325.49282396 Ry
     estimated scf accuracy    <       2.41445818 Ry

     iteration #  2     ecut=    60.00 Ry     beta= 0.70
     Davidson diagonalization with overlap
     ethr =  8.62E-03,  avg # of iterations =  2.0

     negative rho (up, down):  3.602E-03 0.000E+00

     total cpu time spent up to now is        5.6 secs

     total energy              =    -326.34654296 Ry
     estimated scf accuracy    <       0.29485089 Ry

     iteration #  3     ecut=    60.00 Ry     beta= 0.70
     Davidson diagonalization with overlap
     ethr =  1.05E-03,  avg # of iterations =  2.0

     negative rho (up, down):  3.779E-03 0.000E+00

     total cpu time spent up to now is        7.7 secs

     total energy              =    -326.38609723 Ry
     estimated scf accuracy    <       0.00612745 Ry

     iteration #  4     ecut=    60.00 Ry     beta= 0.70
     Davidson diagonalization with overlap
     ethr =  2.19E-05,  avg # of iterations =  3.0

     negative rho (up, down):  3.701E-03 0.000E+00

     total cpu time spent up to now is       10.1 secs

     total energy              =    -326.38854375 Ry
     estimated scf accuracy    <       0.00105694 Ry

     iteration #  5     ecut=    60.00 Ry     beta= 0.70
     Davidson diagonalization with overlap
     ethr =  3.77E-06,  avg # of iterations =  2.2

     negative rho (up, down):  3.680E-03 0.000E+00

     total cpu time spent up to now is       12.2 secs

     total energy              =    -326.38881017 Ry
     estimated scf accuracy    <       0.00000831 Ry

     iteration #  6     ecut=    60.00 Ry     beta= 0.70
     Davidson diagonalization with overlap
     ethr =  2.97E-08,  avg # of iterations =  6.0

     negative rho (up, down):  3.681E-03 0.000E+00

     total cpu time spent up to now is       15.1 secs

     total energy              =    -326.38980066 Ry
     estimated scf accuracy    <       0.00004169 Ry

     iteration #  7     ecut=    60.00 Ry     beta= 0.70
     Davidson diagonalization with overlap
     ethr =  2.97E-08,  avg # of iterations =  1.0

     negative rho (up, down):  3.681E-03 0.000E+00

     total cpu time spent up to now is       16.9 secs

     total energy              =    -326.38979034 Ry
     estimated scf accuracy    <       0.00004542 Ry

     iteration #  8     ecut=    60.00 Ry     beta= 0.70
     Davidson diagonalization with overlap
     ethr =  2.97E-08,  avg # of iterations =  2.0

     negative rho (up, down):  3.681E-03 0.000E+00

     total cpu time spent up to now is       18.6 secs

     total energy              =    -326.38979184 Ry
     estimated scf accuracy    <       0.00001290 Ry

     iteration #  9     ecut=    60.00 Ry     beta= 0.70
     Davidson diagonalization with overlap
     ethr =  2.97E-08,  avg # of iterations =  1.0

     negative rho (up, down):  3.679E-03 0.000E+00

     total cpu time spent up to now is       20.1 secs

     total energy              =    -326.38978756 Ry
     estimated scf accuracy    <       0.00001435 Ry

     iteration # 10     ecut=    60.00 Ry     beta= 0.70
     Davidson diagonalization with overlap
     ethr =  2.97E-08,  avg # of iterations =  2.2

     negative rho (up, down):  3.680E-03 0.000E+00

     total cpu time spent up to now is       22.0 secs

     End of self-consistent calculation

          k = 0.0000 0.0000 0.0000 ( 20001 PWs)   bands (ev):

   -24.2017 -24.2017 -24.1969 -24.0850 -24.0850 -23.9382 -23.9382 -23.8532
   -23.8532 -23.7874 -12.2926  -4.3429  -3.7563  -3.4351

          k = 0.0000 0.1650 0.0000 ( 20063 PWs)   bands (ev):

   -24.2455 -24.2445 -24.1943 -24.0892 -24.0772 -23.8967 -23.8894 -23.8622
   -23.8491 -23.7855 -12.1190  -5.6129  -4.1635  -3.7680

          k = 0.0000 0.3299 0.0000 ( 20087 PWs)   bands (ev):

   -24.3156 -24.3149 -24.1856 -24.0982 -24.0568 -23.8851 -23.8476 -23.8402
   -23.8086 -23.7652 -11.6118  -7.4518  -4.3272  -3.6476

          k = 0.0000 0.4949 0.0000 ( 20141 PWs)   bands (ev):

   -24.3599 -24.3575 -24.1783 -24.1049 -24.0354 -23.9086 -23.8382 -23.8335
   -23.7569 -23.7316 -10.8936  -8.8639  -4.6761  -2.9394

          k = 0.1429 0.2474 0.0000 ( 20103 PWs)   bands (ev):

   -24.3244 -24.2621 -24.1971 -24.0970 -24.0613 -23.8798 -23.8520 -23.8415
   -23.8387 -23.7682 -11.7769  -6.9424  -4.4276  -3.8140

          k = 0.1429 0.4124 0.0000 ( 20108 PWs)   bands (ev):

   -24.3920 -24.2908 -24.1943 -24.1067 -24.0344 -23.9088 -23.8321 -23.8318
   -23.8019 -23.7149 -11.1297  -8.3848  -5.0843  -3.1671

          k = 0.1429 0.5774 0.0000 ( 20103 PWs)   bands (ev):

   -24.4172 -24.3037 -24.1914 -24.1108 -24.0171 -23.9270 -23.8327 -23.8281
   -23.7842 -23.6890 -10.5553  -9.2490  -5.3189  -2.6105

          k = 0.2857 0.4949 0.0000 ( 20109 PWs)   bands (ev):

   -24.4393 -24.2603 -24.2181 -24.1151 -23.9975 -23.9464 -23.8241 -23.8208
   -23.8102 -23.6676 -10.3946  -9.3515  -5.7854  -2.4489

     highest occupied level (ev):    -2.4489

!    total energy              =    -326.38978849 Ry
     estimated scf accuracy    <       0.00000032 Ry

     The total energy is the sum of the following terms:
     one-electron contribution =    -882.70527904 Ry
     hartree contribution      =     448.40336294 Ry
     xc contribution           =     -95.06617612 Ry
     ewald contribution        =     202.97830373 Ry

     convergence has been achieved in  10 iterations

     Writing output data file ../tmp/stanene.save/

     init_run     :      0.95s CPU      1.10s WALL (       1 calls)
     electrons    :     19.49s CPU     20.87s WALL (       1 calls)

     Called by init_run:
     wfcinit      :      0.54s CPU      0.58s WALL (       1 calls)
     potinit      :      0.12s CPU      0.12s WALL (       1 calls)
     hinit0       :      0.17s CPU      0.17s WALL (       1 calls)

     Called by electrons:
     c_bands      :     15.05s CPU     15.51s WALL (      10 calls)
     sum_band     :      2.97s CPU      3.64s WALL (      10 calls)
     v_of_rho     :      0.48s CPU      0.50s WALL (      11 calls)
     newd         :      0.96s CPU      1.28s WALL (      11 calls)
     mix_rho      :      0.12s CPU      0.13s WALL (      10 calls)

     Called by c_bands:
     init_us_2    :      0.18s CPU      0.19s WALL (     168 calls)
     cegterg      :     14.33s CPU     14.78s WALL (      80 calls)

     Called by *egterg:
     cdiaghg      :      0.18s CPU      0.18s WALL (     268 calls)
     h_psi        :      9.76s CPU     10.22s WALL (     276 calls)
     s_psi        :      0.65s CPU      0.65s WALL (     276 calls)
     g_psi        :      0.06s CPU      0.06s WALL (     188 calls)

     Called by h_psi:
     h_psi:calbec :      1.18s CPU      1.21s WALL (     276 calls)
     vloc_psi     :      7.85s CPU      8.27s WALL (     276 calls)
     add_vuspsi   :      0.69s CPU      0.70s WALL (     276 calls)

     General routines
     calbec       :      1.53s CPU      1.58s WALL (     356 calls)
     fft          :      0.34s CPU      0.36s WALL (     121 calls)
     ffts         :      0.02s CPU      0.02s WALL (      10 calls)
     fftw         :      8.43s CPU      8.86s WALL (    7578 calls)

     Parallel routines
     fft_scatt_xy :      0.83s CPU      0.88s WALL (    7709 calls)
     fft_scatt_yz :      4.79s CPU      5.00s WALL (    7709 calls)

     PWSCF        :     20.55s CPU     22.14s WALL


   This run was terminated on:  21: 0:35  20Jan2024            

=------------------------------------------------------------------------------=
   JOB DONE.
=------------------------------------------------------------------------------=
