
     Program PWSCF v.6.7MaX starts on 20Jan2024 at 21: 1: 5 

     This program is part of the open-source Quantum ESPRESSO suite
     for quantum simulation of materials; please cite
         "P. Giannozzi et al., J. Phys.:Condens. Matter 21 395502 (2009);
         "P. Giannozzi et al., J. Phys.:Condens. Matter 29 465901 (2017);
          URL http://www.quantum-espresso.org", 
     in publications or presentations arising from this work. More details at
     http://www.quantum-espresso.org/quote

     Parallel version (MPI), running on     6 processors

     MPI processes distributed on     1 nodes
     R & G space division:  proc/nbgrp/npool/nimage =       6
     Waiting for input...
     Reading input from standard input

     Current dimensions of program PWSCF are:
     Max number of different atomic species (ntypx) = 10
     Max number of k-points (npk) =  40000
     Max angular momentum in pseudopotentials (lmaxx) =  3

     Subspace diagonalization in iterative solution of the eigenvalue problem:
     one sub-group per band group will be used
     scalapack distributed-memory algorithm (size of sub-group:  2*  2 procs)


     Parallelization info
     --------------------
     sticks:   dense  smooth     PW     G-vecs:    dense   smooth      PW
     Min         214     214     61                26776    26776    4007
     Max         215     215     62                26799    26799    4017
     Sum        1285    1285    367               160699   160699   24069



     bravais-lattice index     =            4
     lattice parameter (alat)  =       8.8439  a.u.
     unit-cell volume          =    2560.0529 (a.u.)^3
     number of atoms/cell      =            2
     number of atomic types    =            1
     number of electrons       =        28.00
     number of Kohn-Sham states=           14
     kinetic-energy cutoff     =      60.0000  Ry
     charge density cutoff     =     240.0000  Ry
     scf convergence threshold =      1.0E-06
     mixing beta               =       0.7000
     number of iterations used =            8  plain     mixing
     Exchange-correlation= SLA  PW   PBE  PBE
                           (   1   4   3   4   0   0   0)

     celldm(1)=   8.843918  celldm(2)=   0.000000  celldm(3)=   4.273504
     celldm(4)=   0.000000  celldm(5)=   0.000000  celldm(6)=   0.000000

     crystal axes: (cart. coord. in units of alat)
               a(1) = (   1.000000   0.000000   0.000000 )  
               a(2) = (  -0.500000   0.866025   0.000000 )  
               a(3) = (   0.000000   0.000000   4.273504 )  

     reciprocal axes: (cart. coord. in units 2 pi/alat)
               b(1) = (  1.000000  0.577350 -0.000000 )  
               b(2) = (  0.000000  1.154701  0.000000 )  
               b(3) = (  0.000000 -0.000000  0.234000 )  


     PseudoPot. # 1 for Sn read from file:
     ../pseudo/Sn_pbe_v1.uspp.F.UPF
     MD5 check sum: 4cf58ce39ec5d5d420df3dd08604eb00
     Pseudo is Ultrasoft + core correction, Zval = 14.0
     Generated by new atomic code, or converted to UPF format
     Using radial grid of  891 points,  6 beta functions with: 
                l(1) =   0
                l(2) =   0
                l(3) =   1
                l(4) =   1
                l(5) =   2
                l(6) =   2
     Q(r) pseudized with  6 coefficients,  rinner =    1.200   1.200   1.200
                                                       1.200   1.200

     atomic species   valence    mass     pseudopotential
        Sn            14.00   118.71000     Sn( 1.00)

     24 Sym. Ops., with inversion, found



   Cartesian axes

     site n.     atom                  positions (alat units)
         1           Sn  tau(   1) = (   0.0000000   0.5773503   2.1367521  )
         2           Sn  tau(   2) = (   0.5000000   0.2886751   2.1367521  )

     number of k points=    12
                       cart. coord. in units 2pi/alat
        k(    1) = (   0.0000000   0.0000000   0.0000000), wk =   0.0246914
        k(    2) = (   0.0000000   0.1283001   0.0000000), wk =   0.1481481
        k(    3) = (   0.0000000   0.2566001   0.0000000), wk =   0.1481481
        k(    4) = (   0.0000000   0.3849002   0.0000000), wk =   0.1481481
        k(    5) = (   0.0000000   0.5132002   0.0000000), wk =   0.1481481
        k(    6) = (   0.1111111   0.1924501   0.0000000), wk =   0.1481481
        k(    7) = (   0.1111111   0.3207501   0.0000000), wk =   0.2962963
        k(    8) = (   0.1111111   0.4490502   0.0000000), wk =   0.2962963
        k(    9) = (   0.1111111   0.5773503   0.0000000), wk =   0.1481481
        k(   10) = (   0.2222222   0.3849002   0.0000000), wk =   0.1481481
        k(   11) = (   0.2222222   0.5132002   0.0000000), wk =   0.2962963
        k(   12) = (   0.3333333   0.5773503   0.0000000), wk =   0.0493827

     Dense  grid:   160699 G-vectors     FFT dimensions: (  45,  45, 192)

     Estimated max dynamical RAM per process >     104.81 MB

     Estimated total dynamical RAM >     628.85 MB

     Initial potential from superposition of free atoms

     starting charge   25.99991, renormalised to   28.00000

     negative rho (up, down):  5.017E-03 0.000E+00
     Starting wfcs are   18 randomized atomic wfcs

     total cpu time spent up to now is        1.5 secs

     Self-consistent Calculation

     iteration #  1     ecut=    60.00 Ry     beta= 0.70
     Davidson diagonalization with overlap
     ethr =  1.00E-02,  avg # of iterations =  2.0

     negative rho (up, down):  3.305E-03 0.000E+00

     total cpu time spent up to now is        4.4 secs

     total energy              =    -325.49325388 Ry
     estimated scf accuracy    <       2.41373569 Ry

     iteration #  2     ecut=    60.00 Ry     beta= 0.70
     Davidson diagonalization with overlap
     ethr =  8.62E-03,  avg # of iterations =  2.0

     negative rho (up, down):  3.598E-03 0.000E+00

     total cpu time spent up to now is        7.5 secs

     total energy              =    -326.34679720 Ry
     estimated scf accuracy    <       0.29475906 Ry

     iteration #  3     ecut=    60.00 Ry     beta= 0.70
     Davidson diagonalization with overlap
     ethr =  1.05E-03,  avg # of iterations =  2.0

     negative rho (up, down):  3.778E-03 0.000E+00

     total cpu time spent up to now is       10.6 secs

     total energy              =    -326.38638037 Ry
     estimated scf accuracy    <       0.00612287 Ry

     iteration #  4     ecut=    60.00 Ry     beta= 0.70
     Davidson diagonalization with overlap
     ethr =  2.19E-05,  avg # of iterations =  2.9

     negative rho (up, down):  3.699E-03 0.000E+00

     total cpu time spent up to now is       14.1 secs

     total energy              =    -326.38886133 Ry
     estimated scf accuracy    <       0.00105304 Ry

     iteration #  5     ecut=    60.00 Ry     beta= 0.70
     Davidson diagonalization with overlap
     ethr =  3.76E-06,  avg # of iterations =  2.2

     negative rho (up, down):  3.680E-03 0.000E+00

     total cpu time spent up to now is       17.2 secs

     total energy              =    -326.38913134 Ry
     estimated scf accuracy    <       0.00000955 Ry

     iteration #  6     ecut=    60.00 Ry     beta= 0.70
     Davidson diagonalization with overlap
     ethr =  3.41E-08,  avg # of iterations =  5.2

     negative rho (up, down):  3.681E-03 0.000E+00

     total cpu time spent up to now is       20.9 secs

     total energy              =    -326.38973030 Ry
     estimated scf accuracy    <       0.00001672 Ry

     iteration #  7     ecut=    60.00 Ry     beta= 0.70
     Davidson diagonalization with overlap
     ethr =  3.41E-08,  avg # of iterations =  1.0

     negative rho (up, down):  3.680E-03 0.000E+00

     total cpu time spent up to now is       23.2 secs

     total energy              =    -326.38972459 Ry
     estimated scf accuracy    <       0.00001897 Ry

     iteration #  8     ecut=    60.00 Ry     beta= 0.70
     Davidson diagonalization with overlap
     ethr =  3.41E-08,  avg # of iterations =  2.0

     negative rho (up, down):  3.680E-03 0.000E+00

     total cpu time spent up to now is       26.7 secs

     total energy              =    -326.38972543 Ry
     estimated scf accuracy    <       0.00000242 Ry

     iteration #  9     ecut=    60.00 Ry     beta= 0.70
     Davidson diagonalization with overlap
     ethr =  8.63E-09,  avg # of iterations =  1.1

     negative rho (up, down):  3.679E-03 0.000E+00

     total cpu time spent up to now is       28.9 secs

     total energy              =    -326.38972569 Ry
     estimated scf accuracy    <       0.00000184 Ry

     iteration # 10     ecut=    60.00 Ry     beta= 0.70
     Davidson diagonalization with overlap
     ethr =  6.59E-09,  avg # of iterations =  1.0

     negative rho (up, down):  3.680E-03 0.000E+00

     total cpu time spent up to now is       31.2 secs

     total energy              =    -326.38972499 Ry
     estimated scf accuracy    <       0.00000364 Ry

     iteration # 11     ecut=    60.00 Ry     beta= 0.70
     Davidson diagonalization with overlap
     ethr =  6.59E-09,  avg # of iterations =  2.2

     negative rho (up, down):  3.680E-03 0.000E+00

     total cpu time spent up to now is       33.8 secs

     End of self-consistent calculation

          k = 0.0000 0.0000 0.0000 ( 20001 PWs)   bands (ev):

   -24.2039 -24.2039 -24.2003 -24.0882 -24.0882 -23.9404 -23.9404 -23.8564
   -23.8564 -23.7909 -12.2922  -4.3430  -3.7568  -3.4342

          k = 0.0000 0.1283 0.0000 ( 20015 PWs)   bands (ev):

   -24.2326 -24.2318 -24.1987 -24.0908 -24.0834 -23.9129 -23.9085 -23.8619
   -23.8538 -23.7901 -12.1870  -5.1737  -4.2341  -3.6500

          k = 0.0000 0.2566 0.0000 ( 20053 PWs)   bands (ev):

   -24.2877 -24.2877 -24.1927 -24.0972 -24.0701 -23.8770 -23.8666 -23.8475
   -23.8456 -23.7815 -11.8754  -6.6686  -4.0872  -3.9147

          k = 0.0000 0.3849 0.0000 ( 20131 PWs)   bands (ev):

   -24.3370 -24.3354 -24.1856 -24.1041 -24.0520 -23.8972 -23.8448 -23.8406
   -23.7888 -23.7554 -11.3797  -7.9893  -4.4766  -3.4163

          k = 0.0000 0.5132 0.0000 ( 20126 PWs)   bands (ev):

   -24.3646 -24.3618 -24.1809 -24.1084 -24.0371 -23.9133 -23.8414 -23.8363
   -23.7564 -23.7322 -10.8256  -8.9658  -4.6932  -2.8745

          k = 0.1111 0.1925 0.0000 ( 20045 PWs)   bands (ev):

   -24.2899 -24.2498 -24.1999 -24.0958 -24.0737 -23.8772 -23.8728 -23.8646
   -23.8489 -23.7843 -11.9783  -6.2576  -4.0830  -4.0196

          k = 0.1111 0.3208 0.0000 ( 20100 PWs)   bands (ev):

   -24.3510 -24.2825 -24.1966 -24.1034 -24.0560 -23.8923 -23.8439 -23.8414
   -23.8226 -23.7552 -11.5706  -7.5024  -4.6299  -3.6064

          k = 0.1111 0.4491 0.0000 ( 20112 PWs)   bands (ev):

   -24.3940 -24.3093 -24.1913 -24.1098 -24.0359 -23.9140 -23.8378 -23.8352
   -23.7907 -23.7165 -11.0110  -8.6148  -5.0047  -3.0519

          k = 0.1111 0.5774 0.0000 ( 20127 PWs)   bands (ev):

   -24.4093 -24.3193 -24.1889 -24.1123 -24.0256 -23.9248 -23.8380 -23.8328
   -23.7785 -23.7007 -10.6139  -9.2031  -5.1346  -2.6690

          k = 0.2222 0.3849 0.0000 ( 20093 PWs)   bands (ev):

   -24.4050 -24.2776 -24.2059 -24.1116 -24.0326 -23.9169 -23.8336 -23.8258
   -23.8185 -23.7075 -11.0815  -8.4249  -5.2898  -3.1192

          k = 0.2222 0.5132 0.0000 ( 20115 PWs)   bands (ev):

   -24.4351 -24.2756 -24.2113 -24.1170 -24.0084 -23.9419 -23.8286 -23.8286
   -23.8060 -23.6764 -10.4957  -9.2511  -5.6593  -2.5485

          k = 0.3333 0.5774 0.0000 ( 20085 PWs)   bands (ev):

   -24.4497 -24.2410 -24.2410 -24.1200 -23.9752 -23.9752 -23.8258 -23.8187
   -23.8187 -23.6612  -9.8880  -9.8880  -5.9186  -1.9644

     highest occupied level (ev):    -1.9644

!    total energy              =    -326.38972512 Ry
     estimated scf accuracy    <       0.00000005 Ry

     The total energy is the sum of the following terms:
     one-electron contribution =    -882.70294047 Ry
     hartree contribution      =     448.40077711 Ry
     xc contribution           =     -95.06586549 Ry
     ewald contribution        =     202.97830373 Ry

     convergence has been achieved in  11 iterations

     Writing output data file ../tmp/stanene.save/

     init_run     :      1.24s CPU      1.40s WALL (       1 calls)
     electrons    :     30.28s CPU     32.26s WALL (       1 calls)

     Called by init_run:
     wfcinit      :      0.82s CPU      0.90s WALL (       1 calls)
     potinit      :      0.11s CPU      0.11s WALL (       1 calls)
     hinit0       :      0.17s CPU      0.18s WALL (       1 calls)

     Called by electrons:
     c_bands      :     24.16s CPU     25.02s WALL (      11 calls)
     sum_band     :      4.34s CPU      5.14s WALL (      11 calls)
     v_of_rho     :      0.58s CPU      0.60s WALL (      12 calls)
     newd         :      1.18s CPU      1.51s WALL (      12 calls)
     mix_rho      :      0.13s CPU      0.14s WALL (      11 calls)

     Called by c_bands:
     init_us_2    :      0.27s CPU      0.28s WALL (     276 calls)
     cegterg      :     23.01s CPU     23.87s WALL (     132 calls)

     Called by *egterg:
     cdiaghg      :      0.26s CPU      0.26s WALL (     415 calls)
     h_psi        :     15.79s CPU     16.69s WALL (     427 calls)
     s_psi        :      1.02s CPU      1.03s WALL (     427 calls)
     g_psi        :      0.09s CPU      0.09s WALL (     283 calls)

     Called by h_psi:
     h_psi:calbec :      1.82s CPU      1.88s WALL (     427 calls)
     vloc_psi     :     12.85s CPU     13.67s WALL (     427 calls)
     add_vuspsi   :      1.07s CPU      1.10s WALL (     427 calls)

     General routines
     calbec       :      2.45s CPU      2.52s WALL (     559 calls)
     fft          :      0.39s CPU      0.41s WALL (     132 calls)
     ffts         :      0.03s CPU      0.03s WALL (      11 calls)
     fftw         :     13.82s CPU     14.62s WALL (   12074 calls)

     Parallel routines
     fft_scatt_xy :      1.27s CPU      1.36s WALL (   12217 calls)
     fft_scatt_yz :      8.00s CPU      8.41s WALL (   12217 calls)

     PWSCF        :     31.67s CPU     33.87s WALL


   This run was terminated on:  21: 1:39  20Jan2024            

=------------------------------------------------------------------------------=
   JOB DONE.
=------------------------------------------------------------------------------=
