
     Program PWSCF v.6.7MaX starts on 20Jan2024 at 21: 1:40 

     This program is part of the open-source Quantum ESPRESSO suite
     for quantum simulation of materials; please cite
         "P. Giannozzi et al., J. Phys.:Condens. Matter 21 395502 (2009);
         "P. Giannozzi et al., J. Phys.:Condens. Matter 29 465901 (2017);
          URL http://www.quantum-espresso.org", 
     in publications or presentations arising from this work. More details at
     http://www.quantum-espresso.org/quote

     Parallel version (MPI), running on     6 processors

     MPI processes distributed on     1 nodes
     R & G space division:  proc/nbgrp/npool/nimage =       6
     Waiting for input...
     Reading input from standard input

     Current dimensions of program PWSCF are:
     Max number of different atomic species (ntypx) = 10
     Max number of k-points (npk) =  40000
     Max angular momentum in pseudopotentials (lmaxx) =  3

     Subspace diagonalization in iterative solution of the eigenvalue problem:
     one sub-group per band group will be used
     scalapack distributed-memory algorithm (size of sub-group:  2*  2 procs)


     Parallelization info
     --------------------
     sticks:   dense  smooth     PW     G-vecs:    dense   smooth      PW
     Min         214     214     60                26776    26776    3950
     Max         215     215     61                26799    26799    3963
     Sum        1285    1285    361               160699   160699   23727



     bravais-lattice index     =            4
     lattice parameter (alat)  =       8.8439  a.u.
     unit-cell volume          =    2560.0529 (a.u.)^3
     number of atoms/cell      =            2
     number of atomic types    =            1
     number of electrons       =        28.00
     number of Kohn-Sham states=           14
     kinetic-energy cutoff     =      60.0000  Ry
     charge density cutoff     =     240.0000  Ry
     scf convergence threshold =      1.0E-06
     mixing beta               =       0.7000
     number of iterations used =            8  plain     mixing
     Exchange-correlation= SLA  PW   PBE  PBE
                           (   1   4   3   4   0   0   0)

     celldm(1)=   8.843918  celldm(2)=   0.000000  celldm(3)=   4.273504
     celldm(4)=   0.000000  celldm(5)=   0.000000  celldm(6)=   0.000000

     crystal axes: (cart. coord. in units of alat)
               a(1) = (   1.000000   0.000000   0.000000 )  
               a(2) = (  -0.500000   0.866025   0.000000 )  
               a(3) = (   0.000000   0.000000   4.273504 )  

     reciprocal axes: (cart. coord. in units 2 pi/alat)
               b(1) = (  1.000000  0.577350 -0.000000 )  
               b(2) = (  0.000000  1.154701  0.000000 )  
               b(3) = (  0.000000 -0.000000  0.234000 )  


     PseudoPot. # 1 for Sn read from file:
     ../pseudo/Sn_pbe_v1.uspp.F.UPF
     MD5 check sum: 4cf58ce39ec5d5d420df3dd08604eb00
     Pseudo is Ultrasoft + core correction, Zval = 14.0
     Generated by new atomic code, or converted to UPF format
     Using radial grid of  891 points,  6 beta functions with: 
                l(1) =   0
                l(2) =   0
                l(3) =   1
                l(4) =   1
                l(5) =   2
                l(6) =   2
     Q(r) pseudized with  6 coefficients,  rinner =    1.200   1.200   1.200
                                                       1.200   1.200

     atomic species   valence    mass     pseudopotential
        Sn            14.00   118.71000     Sn( 1.00)

     24 Sym. Ops., with inversion, found



   Cartesian axes

     site n.     atom                  positions (alat units)
         1           Sn  tau(   1) = (   0.0000000   0.5773503   2.1367521  )
         2           Sn  tau(   2) = (   0.5000000   0.2886751   2.1367521  )

     number of k points=    14
                       cart. coord. in units 2pi/alat
        k(    1) = (   0.0000000   0.0000000   0.0000000), wk =   0.0200000
        k(    2) = (   0.0000000   0.1154701   0.0000000), wk =   0.1200000
        k(    3) = (   0.0000000   0.2309401   0.0000000), wk =   0.1200000
        k(    4) = (   0.0000000   0.3464102   0.0000000), wk =   0.1200000
        k(    5) = (   0.0000000   0.4618802   0.0000000), wk =   0.1200000
        k(    6) = (   0.0000000  -0.5773503   0.0000000), wk =   0.0600000
        k(    7) = (   0.1000000   0.1732051   0.0000000), wk =   0.1200000
        k(    8) = (   0.1000000   0.2886751   0.0000000), wk =   0.2400000
        k(    9) = (   0.1000000   0.4041452   0.0000000), wk =   0.2400000
        k(   10) = (   0.1000000   0.5196152   0.0000000), wk =   0.2400000
        k(   11) = (   0.2000000   0.3464102   0.0000000), wk =   0.1200000
        k(   12) = (   0.2000000   0.4618802   0.0000000), wk =   0.2400000
        k(   13) = (   0.2000000   0.5773503   0.0000000), wk =   0.1200000
        k(   14) = (   0.3000000   0.5196152   0.0000000), wk =   0.1200000

     Dense  grid:   160699 G-vectors     FFT dimensions: (  45,  45, 192)

     Estimated max dynamical RAM per process >     106.24 MB

     Estimated total dynamical RAM >     637.43 MB

     Initial potential from superposition of free atoms

     starting charge   25.99991, renormalised to   28.00000

     negative rho (up, down):  5.017E-03 0.000E+00
     Starting wfcs are   18 randomized atomic wfcs

     total cpu time spent up to now is        1.7 secs

     Self-consistent Calculation

     iteration #  1     ecut=    60.00 Ry     beta= 0.70
     Davidson diagonalization with overlap
     ethr =  1.00E-02,  avg # of iterations =  2.0

     negative rho (up, down):  3.313E-03 0.000E+00

     total cpu time spent up to now is        5.1 secs

     total energy              =    -325.49370511 Ry
     estimated scf accuracy    <       2.41412081 Ry

     iteration #  2     ecut=    60.00 Ry     beta= 0.70
     Davidson diagonalization with overlap
     ethr =  8.62E-03,  avg # of iterations =  2.0

     negative rho (up, down):  3.602E-03 0.000E+00

     total cpu time spent up to now is        8.5 secs

     total energy              =    -326.34753446 Ry
     estimated scf accuracy    <       0.29494757 Ry

     iteration #  3     ecut=    60.00 Ry     beta= 0.70
     Davidson diagonalization with overlap
     ethr =  1.05E-03,  avg # of iterations =  2.0

     negative rho (up, down):  3.778E-03 0.000E+00

     total cpu time spent up to now is       12.2 secs

     total energy              =    -326.38714811 Ry
     estimated scf accuracy    <       0.00613037 Ry

     iteration #  4     ecut=    60.00 Ry     beta= 0.70
     Davidson diagonalization with overlap
     ethr =  2.19E-05,  avg # of iterations =  2.9

     negative rho (up, down):  3.700E-03 0.000E+00

     total cpu time spent up to now is       15.8 secs

     total energy              =    -326.38964863 Ry
     estimated scf accuracy    <       0.00104763 Ry

     iteration #  5     ecut=    60.00 Ry     beta= 0.70
     Davidson diagonalization with overlap
     ethr =  3.74E-06,  avg # of iterations =  2.6

     negative rho (up, down):  3.678E-03 0.000E+00

     total cpu time spent up to now is       19.5 secs

     total energy              =    -326.38992052 Ry
     estimated scf accuracy    <       0.00001071 Ry

     iteration #  6     ecut=    60.00 Ry     beta= 0.70
     Davidson diagonalization with overlap
     ethr =  3.83E-08,  avg # of iterations =  5.1

     negative rho (up, down):  3.681E-03 0.000E+00

     total cpu time spent up to now is       24.8 secs

     total energy              =    -326.39040490 Ry
     estimated scf accuracy    <       0.00001032 Ry

     iteration #  7     ecut=    60.00 Ry     beta= 0.70
     Davidson diagonalization with overlap
     ethr =  3.68E-08,  avg # of iterations =  1.0

     negative rho (up, down):  3.680E-03 0.000E+00

     total cpu time spent up to now is       27.3 secs

     total energy              =    -326.39040077 Ry
     estimated scf accuracy    <       0.00001348 Ry

     iteration #  8     ecut=    60.00 Ry     beta= 0.70
     Davidson diagonalization with overlap
     ethr =  3.68E-08,  avg # of iterations =  1.8

     negative rho (up, down):  3.681E-03 0.000E+00

     total cpu time spent up to now is       30.1 secs

     total energy              =    -326.39040145 Ry
     estimated scf accuracy    <       0.00000102 Ry

     iteration #  9     ecut=    60.00 Ry     beta= 0.70
     Davidson diagonalization with overlap
     ethr =  3.63E-09,  avg # of iterations =  2.4

     negative rho (up, down):  3.681E-03 0.000E+00

     total cpu time spent up to now is       32.8 secs

     End of self-consistent calculation

          k = 0.0000 0.0000 0.0000 ( 20001 PWs)   bands (ev):

   -24.2048 -24.2048 -24.2028 -24.0904 -24.0904 -23.9413 -23.9413 -23.8587
   -23.8587 -23.7937 -12.2922  -4.3436  -3.7573  -3.4337

          k = 0.0000 0.1155 0.0000 ( 19999 PWs)   bands (ev):

   -24.2287 -24.2281 -24.2013 -24.0925 -24.0865 -23.9185 -23.9149 -23.8632
   -23.8566 -23.7930 -12.2070  -5.0187  -4.2553  -3.6123

          k = 0.0000 0.2309 0.0000 ( 20053 PWs)   bands (ev):

   -24.2774 -24.2774 -24.1963 -24.0980 -24.0755 -23.8761 -23.8756 -23.8594
   -23.8512 -23.7870 -11.9537  -6.3803  -3.9969  -3.9951

          k = 0.0000 0.3464 0.0000 ( 20081 PWs)   bands (ev):

   -24.3251 -24.3238 -24.1898 -24.1044 -24.0598 -23.8933 -23.8503 -23.8448
   -23.8048 -23.7663 -11.5445  -7.6178  -4.3738  -3.5813

          k = 0.0000 0.4619 0.0000 ( 20133 PWs)   bands (ev):

   -24.3577 -24.3551 -24.1844 -24.1093 -24.0441 -23.9104 -23.8443 -23.8399
   -23.7667 -23.7408 -11.0324  -8.6400  -4.6307  -3.0753

          k = 0.0000-0.5774 0.0000 ( 20096 PWs)   bands (ev):

   -24.3692 -24.3661 -24.1823 -24.1112 -24.0370 -23.9181 -23.8438 -23.8380
   -23.7531 -23.7303 -10.7040  -9.1405  -4.7206  -2.7593

          k = 0.1000 0.1732 0.0000 ( 20051 PWs)   bands (ev):

   -24.2781 -24.2449 -24.2022 -24.0967 -24.0787 -23.8869 -23.8758 -23.8720
   -23.8525 -23.7891 -12.0375  -6.0073  -4.0809  -3.9714

          k = 0.1000 0.2887 0.0000 ( 20093 PWs)   bands (ev):

   -24.3344 -24.2768 -24.1990 -24.1033 -24.0640 -23.8883 -23.8525 -23.8460
   -23.8332 -23.7688 -11.7045  -7.1613  -4.4596  -3.7419

          k = 0.1000 0.4041 0.0000 ( 20100 PWs)   bands (ev):

   -24.3790 -24.3063 -24.1936 -24.1097 -24.0460 -23.9079 -23.8415 -23.8398
   -23.7993 -23.7328 -11.2311  -8.2366  -4.8423  -3.2691

          k = 0.1000 0.5196 0.0000 ( 20126 PWs)   bands (ev):

   -24.4033 -24.3229 -24.1898 -24.1135 -24.0317 -23.9231 -23.8409 -23.8360
   -23.7793 -23.7086 -10.7352  -9.0465  -5.0448  -2.7860

          k = 0.2000 0.3464 0.0000 ( 20095 PWs)   bands (ev):

   -24.3870 -24.2787 -24.2053 -24.1107 -24.0449 -23.9086 -23.8389 -23.8291
   -23.8266 -23.7271 -11.3003  -8.0449  -5.0622  -3.3367

          k = 0.2000 0.4619 0.0000 ( 20104 PWs)   bands (ev):

   -24.4227 -24.2827 -24.2080 -24.1167 -24.0229 -23.9315 -23.8331 -23.8318
   -23.8084 -23.6912 -10.7810  -8.8878  -5.4726  -2.8258

          k = 0.2000 0.5774 0.0000 ( 20119 PWs)   bands (ev):

   -24.4352 -24.2848 -24.2084 -24.1190 -24.0107 -23.9441 -23.8335 -23.8310
   -23.8016 -23.6778 -10.4114  -9.3716  -5.6131  -2.4704

          k = 0.3000 0.5196 0.0000 ( 20105 PWs)   bands (ev):

   -24.4465 -24.2584 -24.2277 -24.1213 -23.9953 -23.9595 -23.8288 -23.8250
   -23.8160 -23.6665 -10.2369  -9.5265  -5.8500  -2.2986

     highest occupied level (ev):    -2.2986

!    total energy              =    -326.39040130 Ry
     estimated scf accuracy    <       0.00000081 Ry

     The total energy is the sum of the following terms:
     one-electron contribution =    -882.70344103 Ry
     hartree contribution      =     448.40076923 Ry
     xc contribution           =     -95.06603324 Ry
     ewald contribution        =     202.97830373 Ry

     convergence has been achieved in   9 iterations

     Writing output data file ../tmp/stanene.save/

     init_run     :      1.47s CPU      1.57s WALL (       1 calls)
     electrons    :     29.72s CPU     31.17s WALL (       1 calls)

     Called by init_run:
     wfcinit      :      1.05s CPU      1.10s WALL (       1 calls)
     potinit      :      0.11s CPU      0.12s WALL (       1 calls)
     hinit0       :      0.18s CPU      0.18s WALL (       1 calls)

     Called by electrons:
     c_bands      :     24.01s CPU     24.59s WALL (       9 calls)
     sum_band     :      4.29s CPU      4.95s WALL (       9 calls)
     v_of_rho     :      0.47s CPU      0.49s WALL (      10 calls)
     newd         :      0.98s CPU      1.19s WALL (      10 calls)
     mix_rho      :      0.08s CPU      0.09s WALL (       9 calls)

     Called by c_bands:
     init_us_2    :      0.28s CPU      0.29s WALL (     266 calls)
     cegterg      :     23.00s CPU     23.57s WALL (     126 calls)

     Called by *egterg:
     cdiaghg      :      0.26s CPU      0.27s WALL (     430 calls)
     h_psi        :     15.73s CPU     16.33s WALL (     444 calls)
     s_psi        :      1.01s CPU      1.01s WALL (     444 calls)
     g_psi        :      0.09s CPU      0.09s WALL (     304 calls)

     Called by h_psi:
     h_psi:calbec :      1.83s CPU      1.87s WALL (     444 calls)
     vloc_psi     :     12.80s CPU     13.35s WALL (     444 calls)
     add_vuspsi   :      1.05s CPU      1.06s WALL (     444 calls)

     General routines
     calbec       :      2.42s CPU      2.49s WALL (     570 calls)
     fft          :      0.31s CPU      0.33s WALL (     110 calls)
     ffts         :      0.02s CPU      0.02s WALL (       9 calls)
     fftw         :     13.86s CPU     14.42s WALL (   11900 calls)

     Parallel routines
     fft_scatt_xy :      1.27s CPU      1.33s WALL (   12019 calls)
     fft_scatt_yz :      8.01s CPU      8.31s WALL (   12019 calls)

     PWSCF        :     31.33s CPU     32.97s WALL


   This run was terminated on:  21: 2:12  20Jan2024            

=------------------------------------------------------------------------------=
   JOB DONE.
=------------------------------------------------------------------------------=
