
     Program PWSCF v.6.7MaX starts on 20Jan2024 at 21: 5:47 

     This program is part of the open-source Quantum ESPRESSO suite
     for quantum simulation of materials; please cite
         "P. Giannozzi et al., J. Phys.:Condens. Matter 21 395502 (2009);
         "P. Giannozzi et al., J. Phys.:Condens. Matter 29 465901 (2017);
          URL http://www.quantum-espresso.org", 
     in publications or presentations arising from this work. More details at
     http://www.quantum-espresso.org/quote

     Parallel version (MPI), running on     6 processors

     MPI processes distributed on     1 nodes
     R & G space division:  proc/nbgrp/npool/nimage =       6
     Waiting for input...
     Reading input from standard input

     Current dimensions of program PWSCF are:
     Max number of different atomic species (ntypx) = 10
     Max number of k-points (npk) =  40000
     Max angular momentum in pseudopotentials (lmaxx) =  3

     Subspace diagonalization in iterative solution of the eigenvalue problem:
     one sub-group per band group will be used
     scalapack distributed-memory algorithm (size of sub-group:  2*  2 procs)


     Parallelization info
     --------------------
     sticks:   dense  smooth     PW     G-vecs:    dense   smooth      PW
     Min         214     214     60                26776    26776    3972
     Max         215     215     61                26799    26799    3987
     Sum        1285    1285    361               160699   160699   23859



     bravais-lattice index     =            4
     lattice parameter (alat)  =       8.8439  a.u.
     unit-cell volume          =    2560.0529 (a.u.)^3
     number of atoms/cell      =            2
     number of atomic types    =            1
     number of electrons       =        28.00
     number of Kohn-Sham states=           14
     kinetic-energy cutoff     =      60.0000  Ry
     charge density cutoff     =     240.0000  Ry
     scf convergence threshold =      1.0E-06
     mixing beta               =       0.7000
     number of iterations used =            8  plain     mixing
     Exchange-correlation= SLA  PW   PBE  PBE
                           (   1   4   3   4   0   0   0)

     celldm(1)=   8.843918  celldm(2)=   0.000000  celldm(3)=   4.273504
     celldm(4)=   0.000000  celldm(5)=   0.000000  celldm(6)=   0.000000

     crystal axes: (cart. coord. in units of alat)
               a(1) = (   1.000000   0.000000   0.000000 )  
               a(2) = (  -0.500000   0.866025   0.000000 )  
               a(3) = (   0.000000   0.000000   4.273504 )  

     reciprocal axes: (cart. coord. in units 2 pi/alat)
               b(1) = (  1.000000  0.577350 -0.000000 )  
               b(2) = (  0.000000  1.154701  0.000000 )  
               b(3) = (  0.000000 -0.000000  0.234000 )  


     PseudoPot. # 1 for Sn read from file:
     ../pseudo/Sn_pbe_v1.uspp.F.UPF
     MD5 check sum: 4cf58ce39ec5d5d420df3dd08604eb00
     Pseudo is Ultrasoft + core correction, Zval = 14.0
     Generated by new atomic code, or converted to UPF format
     Using radial grid of  891 points,  6 beta functions with: 
                l(1) =   0
                l(2) =   0
                l(3) =   1
                l(4) =   1
                l(5) =   2
                l(6) =   2
     Q(r) pseudized with  6 coefficients,  rinner =    1.200   1.200   1.200
                                                       1.200   1.200

     atomic species   valence    mass     pseudopotential
        Sn            14.00   118.71000     Sn( 1.00)

     24 Sym. Ops., with inversion, found



   Cartesian axes

     site n.     atom                  positions (alat units)
         1           Sn  tau(   1) = (   0.0000000   0.5773503   2.1367521  )
         2           Sn  tau(   2) = (   0.5000000   0.2886751   2.1367521  )

     number of k points=    30
                       cart. coord. in units 2pi/alat
        k(    1) = (   0.0000000   0.0000000   0.0000000), wk =   0.0078125
        k(    2) = (   0.0000000   0.0721688   0.0000000), wk =   0.0468750
        k(    3) = (   0.0000000   0.1443376   0.0000000), wk =   0.0468750
        k(    4) = (   0.0000000   0.2165064   0.0000000), wk =   0.0468750
        k(    5) = (   0.0000000   0.2886751   0.0000000), wk =   0.0468750
        k(    6) = (   0.0000000   0.3608439   0.0000000), wk =   0.0468750
        k(    7) = (   0.0000000   0.4330127   0.0000000), wk =   0.0468750
        k(    8) = (   0.0000000   0.5051815   0.0000000), wk =   0.0468750
        k(    9) = (   0.0000000  -0.5773503   0.0000000), wk =   0.0234375
        k(   10) = (   0.0625000   0.1082532   0.0000000), wk =   0.0468750
        k(   11) = (   0.0625000   0.1804220   0.0000000), wk =   0.0937500
        k(   12) = (   0.0625000   0.2525907   0.0000000), wk =   0.0937500
        k(   13) = (   0.0625000   0.3247595   0.0000000), wk =   0.0937500
        k(   14) = (   0.0625000   0.3969283   0.0000000), wk =   0.0937500
        k(   15) = (   0.0625000   0.4690971   0.0000000), wk =   0.0937500
        k(   16) = (   0.0625000   0.5412659   0.0000000), wk =   0.0937500
        k(   17) = (   0.1250000   0.2165064   0.0000000), wk =   0.0468750
        k(   18) = (   0.1250000   0.2886751   0.0000000), wk =   0.0937500
        k(   19) = (   0.1250000   0.3608439   0.0000000), wk =   0.0937500
        k(   20) = (   0.1250000   0.4330127   0.0000000), wk =   0.0937500
        k(   21) = (   0.1250000   0.5051815   0.0000000), wk =   0.0937500
        k(   22) = (   0.1250000   0.5773503   0.0000000), wk =   0.0468750
        k(   23) = (   0.1875000   0.3247595   0.0000000), wk =   0.0468750
        k(   24) = (   0.1875000   0.3969283   0.0000000), wk =   0.0937500
        k(   25) = (   0.1875000   0.4690971   0.0000000), wk =   0.0937500
        k(   26) = (   0.1875000   0.5412659   0.0000000), wk =   0.0937500
        k(   27) = (   0.2500000   0.4330127   0.0000000), wk =   0.0468750
        k(   28) = (   0.2500000   0.5051815   0.0000000), wk =   0.0937500
        k(   29) = (   0.2500000   0.5773503   0.0000000), wk =   0.0468750
        k(   30) = (   0.3125000   0.5412659   0.0000000), wk =   0.0468750

     Dense  grid:   160699 G-vectors     FFT dimensions: (  45,  45, 192)

     Estimated max dynamical RAM per process >     117.68 MB

     Estimated total dynamical RAM >     706.09 MB

     Initial potential from superposition of free atoms

     starting charge   25.99991, renormalised to   28.00000

     negative rho (up, down):  5.017E-03 0.000E+00
     Starting wfcs are   18 randomized atomic wfcs

     total cpu time spent up to now is        2.6 secs

     Self-consistent Calculation

     iteration #  1     ecut=    60.00 Ry     beta= 0.70
     Davidson diagonalization with overlap
     ethr =  1.00E-02,  avg # of iterations =  2.0

     negative rho (up, down):  3.310E-03 0.000E+00

     total cpu time spent up to now is        9.3 secs

     total energy              =    -325.49379741 Ry
     estimated scf accuracy    <       2.41410877 Ry

     iteration #  2     ecut=    60.00 Ry     beta= 0.70
     Davidson diagonalization with overlap
     ethr =  8.62E-03,  avg # of iterations =  2.0

     negative rho (up, down):  3.600E-03 0.000E+00

     total cpu time spent up to now is       15.8 secs

     total energy              =    -326.34783127 Ry
     estimated scf accuracy    <       0.29508447 Ry

     iteration #  3     ecut=    60.00 Ry     beta= 0.70
     Davidson diagonalization with overlap
     ethr =  1.05E-03,  avg # of iterations =  2.0

     negative rho (up, down):  3.777E-03 0.000E+00

     total cpu time spent up to now is       23.7 secs

     total energy              =    -326.38754140 Ry
     estimated scf accuracy    <       0.00612585 Ry

     iteration #  4     ecut=    60.00 Ry     beta= 0.70
     Davidson diagonalization with overlap
     ethr =  2.19E-05,  avg # of iterations =  3.0

     negative rho (up, down):  3.699E-03 0.000E+00

     total cpu time spent up to now is       30.3 secs

     total energy              =    -326.39008828 Ry
     estimated scf accuracy    <       0.00102034 Ry

     iteration #  5     ecut=    60.00 Ry     beta= 0.70
     Davidson diagonalization with overlap
     ethr =  3.64E-06,  avg # of iterations =  2.3

     negative rho (up, down):  3.679E-03 0.000E+00

     total cpu time spent up to now is       37.1 secs

     total energy              =    -326.39035459 Ry
     estimated scf accuracy    <       0.00001273 Ry

     iteration #  6     ecut=    60.00 Ry     beta= 0.70
     Davidson diagonalization with overlap
     ethr =  4.55E-08,  avg # of iterations =  5.1

     negative rho (up, down):  3.680E-03 0.000E+00

     total cpu time spent up to now is       44.5 secs

     total energy              =    -326.39054665 Ry
     estimated scf accuracy    <       0.00000195 Ry

     iteration #  7     ecut=    60.00 Ry     beta= 0.70
     Davidson diagonalization with overlap
     ethr =  6.95E-09,  avg # of iterations =  1.9

     negative rho (up, down):  3.679E-03 0.000E+00

     total cpu time spent up to now is       49.4 secs

     total energy              =    -326.39054591 Ry
     estimated scf accuracy    <       0.00000220 Ry

     iteration #  8     ecut=    60.00 Ry     beta= 0.70
     Davidson diagonalization with overlap
     ethr =  6.95E-09,  avg # of iterations =  2.1

     negative rho (up, down):  3.681E-03 0.000E+00

     total cpu time spent up to now is       56.4 secs

     End of self-consistent calculation

          k = 0.0000 0.0000 0.0000 ( 20001 PWs)   bands (ev):

   -24.2037 -24.2037 -24.2021 -24.0896 -24.0896 -23.9402 -23.9402 -23.8579
   -23.8579 -23.7929 -12.2921  -4.3438  -3.7572  -3.4335

          k = 0.0000 0.0722 0.0000 ( 19991 PWs)   bands (ev):

   -24.2137 -24.2133 -24.2017 -24.0905 -24.0881 -23.9306 -23.9291 -23.8596
   -23.8570 -23.7927 -12.2588  -4.4937  -4.3093  -3.5076

          k = 0.0000 0.1443 0.0000 ( 20039 PWs)   bands (ev):

   -24.2388 -24.2384 -24.1995 -24.0929 -24.0836 -23.9070 -23.9012 -23.8648
   -23.8546 -23.7916 -12.1591  -5.3664  -4.2062  -3.6989

          k = 0.0000 0.2165 0.0000 ( 20053 PWs)   bands (ev):

   -24.2700 -24.2699 -24.1962 -24.0964 -24.0764 -23.8800 -23.8729 -23.8656
   -23.8511 -23.7876 -11.9942  -6.2152  -4.0368  -3.9456

          k = 0.0000 0.2887 0.0000 ( 20055 PWs)   bands (ev):

   -24.3015 -24.3009 -24.1922 -24.1004 -24.0672 -23.8833 -23.8589 -23.8471
   -23.8296 -23.7778 -11.7669  -7.0189  -4.1953  -3.8055

          k = 0.0000 0.3608 0.0000 ( 20097 PWs)   bands (ev):

   -24.3292 -24.3276 -24.1882 -24.1043 -24.0569 -23.8948 -23.8479 -23.8432
   -23.7978 -23.7619 -11.4839  -7.7598  -4.4137  -3.5211

          k = 0.0000 0.4330 0.0000 ( 20143 PWs)   bands (ev):

   -24.3504 -24.3480 -24.1847 -24.1075 -24.0468 -23.9058 -23.8440 -23.8400
   -23.7730 -23.7453 -11.1624  -8.4133  -4.5808  -3.2028

          k = 0.0000 0.5052 0.0000 ( 20125 PWs)   bands (ev):

   -24.3637 -24.3607 -24.1823 -24.1096 -24.0391 -23.9141 -23.8431 -23.8379
   -23.7574 -23.7335 -10.8539  -8.9230  -4.6850  -2.9028

          k = 0.0000-0.5774 0.0000 ( 20096 PWs)   bands (ev):

   -24.3682 -24.3650 -24.1815 -24.1104 -24.0362 -23.9173 -23.8430 -23.8372
   -23.7520 -23.7293 -10.7039  -9.1403  -4.7204  -2.7595

          k = 0.0625 0.1083 0.0000 ( 20001 PWs)   bands (ev):

   -24.2370 -24.2232 -24.2019 -24.0921 -24.0850 -23.9143 -23.9096 -23.8631
   -23.8553 -23.7920 -12.1922  -5.1298  -4.2404  -3.6565

          k = 0.0625 0.1804 0.0000 ( 20057 PWs)   bands (ev):

   -24.2699 -24.2446 -24.2002 -24.0953 -24.0790 -23.8893 -23.8789 -23.8699
   -23.8523 -23.7892 -12.0599  -5.9082  -4.1041  -3.9073

          k = 0.0625 0.2526 0.0000 ( 20079 PWs)   bands (ev):

   -24.3047 -24.2706 -24.1968 -24.0992 -24.0705 -23.8795 -23.8651 -23.8483
   -23.8461 -23.7809 -11.8634  -6.6929  -4.1845  -3.9034

          k = 0.0625 0.3248 0.0000 ( 20074 PWs)   bands (ev):

   -24.3367 -24.2957 -24.1929 -24.1034 -24.0603 -23.8908 -23.8497 -23.8442
   -23.8166 -23.7644 -11.6072  -7.4420  -4.4402  -3.6444

          k = 0.0625 0.3969 0.0000 ( 20092 PWs)   bands (ev):

   -24.3628 -24.3166 -24.1891 -24.1071 -24.0495 -23.9027 -23.8436 -23.8406
   -23.7923 -23.7438 -11.3015  -8.1280  -4.6478  -3.3395

          k = 0.0625 0.4691 0.0000 ( 20124 PWs)   bands (ev):

   -24.3811 -24.3314 -24.1861 -24.1099 -24.0399 -23.9131 -23.8420 -23.8378
   -23.7750 -23.7266 -10.9750  -8.7127  -4.7925  -3.0192

          k = 0.0625 0.5413 0.0000 ( 20115 PWs)   bands (ev):

   -24.3905 -24.3391 -24.1845 -24.1114 -24.0340 -23.9194 -23.8419 -23.8363
   -23.7660 -23.7171 -10.7174  -9.1008  -4.8665  -2.7711

          k = 0.1250 0.2165 0.0000 ( 20077 PWs)   bands (ev):

   -24.3060 -24.2566 -24.2013 -24.0990 -24.0713 -23.8784 -23.8670 -23.8533
   -23.8486 -23.7813 -11.8958  -6.5627  -4.2288  -3.9363

          k = 0.1250 0.2887 0.0000 ( 20094 PWs)   bands (ev):

   -24.3410 -24.2726 -24.2003 -24.1034 -24.0612 -23.8895 -23.8476 -23.8443
   -23.8330 -23.7632 -11.6694  -7.2436  -4.5562  -3.7068

          k = 0.1250 0.3608 0.0000 ( 20080 PWs)   bands (ev):

   -24.3712 -24.2888 -24.1978 -24.1077 -24.0496 -23.9021 -23.8401 -23.8394
   -23.8139 -23.7389 -11.3869  -7.9060  -4.8355  -3.4237

          k = 0.1250 0.4330 0.0000 ( 20116 PWs)   bands (ev):

   -24.3943 -24.3020 -24.1950 -24.1113 -24.0379 -23.9146 -23.8381 -23.8366
   -23.7973 -23.7166 -11.0639  -8.5129  -5.0437  -3.1044

          k = 0.1250 0.5052 0.0000 ( 20113 PWs)   bands (ev):

   -24.4088 -24.3106 -24.1930 -24.1136 -24.0285 -23.9245 -23.8384 -23.8344
   -23.7864 -23.7017 -10.7482  -9.0035  -5.1713  -2.7976

          k = 0.1250 0.5774 0.0000 ( 20127 PWs)   bands (ev):

   -24.4137 -24.3136 -24.1923 -24.1144 -24.0248 -23.9285 -23.8387 -23.8336
   -23.7826 -23.6966 -10.5898  -9.2209  -5.2142  -2.6463

          k = 0.1875 0.3248 0.0000 ( 20081 PWs)   bands (ev):

   -24.3741 -24.2764 -24.2034 -24.1081 -24.0493 -23.9022 -23.8398 -23.8305
   -23.8294 -23.7369 -11.4157  -7.8187  -4.9269  -3.4520

          k = 0.1875 0.3969 0.0000 ( 20096 PWs)   bands (ev):

   -24.4012 -24.2812 -24.2048 -24.1124 -24.0359 -23.9163 -23.8357 -23.8305
   -23.8153 -23.7110 -11.1106  -8.3849  -5.2287  -3.1492

          k = 0.1875 0.4691 0.0000 ( 20111 PWs)   bands (ev):

   -24.4202 -24.2856 -24.2049 -24.1156 -24.0230 -23.9299 -23.8326 -23.8324
   -23.8044 -23.6914 -10.7769  -8.9026  -5.4363  -2.8226

          k = 0.1875 0.5413 0.0000 ( 20110 PWs)   bands (ev):

   -24.4300 -24.2882 -24.2046 -24.1174 -24.0140 -23.9392 -23.8337 -23.8309
   -23.7987 -23.6809 -10.4961  -9.2783  -5.5413  -2.5523

          k = 0.2500 0.4330 0.0000 ( 20133 PWs)   bands (ev):

   -24.4241 -24.2739 -24.2120 -24.1164 -24.0206 -23.9322 -23.8318 -23.8266
   -23.8145 -23.6878 -10.7882  -8.8593  -5.5391  -2.8325

          k = 0.2500 0.5052 0.0000 ( 20121 PWs)   bands (ev):

   -24.4385 -24.2683 -24.2176 -24.1191 -24.0057 -23.9474 -23.8293 -23.8273
   -23.8112 -23.6726 -10.4493  -9.2929  -5.7332  -2.5039

          k = 0.2500 0.5774 0.0000 ( 20109 PWs)   bands (ev):

   -24.4434 -24.2661 -24.2198 -24.1201 -23.9981 -23.9551 -23.8284 -23.8279
   -23.8097 -23.6674 -10.2461  -9.5284  -5.7988  -2.3096

          k = 0.3125 0.5413 0.0000 ( 20113 PWs)   bands (ev):

   -24.4479 -24.2518 -24.2318 -24.1210 -23.9878 -23.9654 -23.8275 -23.8229
   -23.8166 -23.6627 -10.1019  -9.6698  -5.8905  -2.1696

     highest occupied level (ev):    -2.1696

!    total energy              =    -326.39054604 Ry
     estimated scf accuracy    <       0.00000036 Ry

     The total energy is the sum of the following terms:
     one-electron contribution =    -882.69986703 Ry
     hartree contribution      =     448.39592553 Ry
     xc contribution           =     -95.06490828 Ry
     ewald contribution        =     202.97830373 Ry

     convergence has been achieved in   8 iterations

     Writing output data file ../tmp/stanene.save/

     init_run     :      2.43s CPU      2.55s WALL (       1 calls)
     electrons    :     51.88s CPU     53.80s WALL (       1 calls)

     Called by init_run:
     wfcinit      :      1.98s CPU      2.08s WALL (       1 calls)
     potinit      :      0.11s CPU      0.11s WALL (       1 calls)
     hinit0       :      0.19s CPU      0.19s WALL (       1 calls)

     Called by electrons:
     c_bands      :     44.58s CPU     45.90s WALL (       8 calls)
     sum_band     :      6.26s CPU      6.65s WALL (       8 calls)
     v_of_rho     :      0.36s CPU      0.38s WALL (       9 calls)
     newd         :      0.72s CPU      0.91s WALL (       9 calls)
     mix_rho      :      0.07s CPU      0.08s WALL (       8 calls)

     Called by c_bands:
     init_us_2    :      0.49s CPU      0.50s WALL (     510 calls)
     cegterg      :     42.68s CPU     43.97s WALL (     240 calls)

     Called by *egterg:
     cdiaghg      :      0.49s CPU      0.49s WALL (     852 calls)
     h_psi        :     28.80s CPU     30.14s WALL (     882 calls)
     s_psi        :      2.05s CPU      2.06s WALL (     882 calls)
     g_psi        :      0.18s CPU      0.18s WALL (     612 calls)

     Called by h_psi:
     h_psi:calbec :      3.60s CPU      3.71s WALL (     882 calls)
     vloc_psi     :     22.99s CPU     24.17s WALL (     882 calls)
     add_vuspsi   :      2.12s CPU      2.15s WALL (     882 calls)

     General routines
     calbec       :      4.77s CPU      4.91s WALL (    1122 calls)
     fft          :      0.22s CPU      0.24s WALL (      99 calls)
     ffts         :      0.01s CPU      0.01s WALL (       8 calls)
     fftw         :     24.44s CPU     25.60s WALL (   24112 calls)

     Parallel routines
     fft_scatt_xy :      2.25s CPU      2.39s WALL (   24219 calls)
     fft_scatt_yz :     12.92s CPU     13.41s WALL (   24219 calls)

     PWSCF        :     54.42s CPU     56.64s WALL


   This run was terminated on:  21: 6:44  20Jan2024            

=------------------------------------------------------------------------------=
   JOB DONE.
=------------------------------------------------------------------------------=
