
     Program PWSCF v.6.7MaX starts on 20Jan2024 at 21: 9:59 

     This program is part of the open-source Quantum ESPRESSO suite
     for quantum simulation of materials; please cite
         "P. Giannozzi et al., J. Phys.:Condens. Matter 21 395502 (2009);
         "P. Giannozzi et al., J. Phys.:Condens. Matter 29 465901 (2017);
          URL http://www.quantum-espresso.org", 
     in publications or presentations arising from this work. More details at
     http://www.quantum-espresso.org/quote

     Parallel version (MPI), running on     6 processors

     MPI processes distributed on     1 nodes
     R & G space division:  proc/nbgrp/npool/nimage =       6
     Waiting for input...
     Reading input from standard input

     Current dimensions of program PWSCF are:
     Max number of different atomic species (ntypx) = 10
     Max number of k-points (npk) =  40000
     Max angular momentum in pseudopotentials (lmaxx) =  3

     Subspace diagonalization in iterative solution of the eigenvalue problem:
     one sub-group per band group will be used
     scalapack distributed-memory algorithm (size of sub-group:  2*  2 procs)


     Parallelization info
     --------------------
     sticks:   dense  smooth     PW     G-vecs:    dense   smooth      PW
     Min         214     214     60                26776    26776    3992
     Max         215     215     62                26799    26799    4003
     Sum        1285    1285    367               160699   160699   23973



     bravais-lattice index     =            4
     lattice parameter (alat)  =       8.8439  a.u.
     unit-cell volume          =    2560.0529 (a.u.)^3
     number of atoms/cell      =            2
     number of atomic types    =            1
     number of electrons       =        28.00
     number of Kohn-Sham states=           14
     kinetic-energy cutoff     =      60.0000  Ry
     charge density cutoff     =     240.0000  Ry
     scf convergence threshold =      1.0E-06
     mixing beta               =       0.7000
     number of iterations used =            8  plain     mixing
     Exchange-correlation= SLA  PW   PBE  PBE
                           (   1   4   3   4   0   0   0)

     celldm(1)=   8.843918  celldm(2)=   0.000000  celldm(3)=   4.273504
     celldm(4)=   0.000000  celldm(5)=   0.000000  celldm(6)=   0.000000

     crystal axes: (cart. coord. in units of alat)
               a(1) = (   1.000000   0.000000   0.000000 )  
               a(2) = (  -0.500000   0.866025   0.000000 )  
               a(3) = (   0.000000   0.000000   4.273504 )  

     reciprocal axes: (cart. coord. in units 2 pi/alat)
               b(1) = (  1.000000  0.577350 -0.000000 )  
               b(2) = (  0.000000  1.154701  0.000000 )  
               b(3) = (  0.000000 -0.000000  0.234000 )  


     PseudoPot. # 1 for Sn read from file:
     ../pseudo/Sn_pbe_v1.uspp.F.UPF
     MD5 check sum: 4cf58ce39ec5d5d420df3dd08604eb00
     Pseudo is Ultrasoft + core correction, Zval = 14.0
     Generated by new atomic code, or converted to UPF format
     Using radial grid of  891 points,  6 beta functions with: 
                l(1) =   0
                l(2) =   0
                l(3) =   1
                l(4) =   1
                l(5) =   2
                l(6) =   2
     Q(r) pseudized with  6 coefficients,  rinner =    1.200   1.200   1.200
                                                       1.200   1.200

     atomic species   valence    mass     pseudopotential
        Sn            14.00   118.71000     Sn( 1.00)

     24 Sym. Ops., with inversion, found



   Cartesian axes

     site n.     atom                  positions (alat units)
         1           Sn  tau(   1) = (   0.0000000   0.5773503   2.1367521  )
         2           Sn  tau(   2) = (   0.5000000   0.2886751   2.1367521  )

     number of k points=    44
                       cart. coord. in units 2pi/alat
        k(    1) = (   0.0000000   0.0000000   0.0000000), wk =   0.0050000
        k(    2) = (   0.0000000   0.0577350   0.0000000), wk =   0.0300000
        k(    3) = (   0.0000000   0.1154701   0.0000000), wk =   0.0300000
        k(    4) = (   0.0000000   0.1732051   0.0000000), wk =   0.0300000
        k(    5) = (   0.0000000   0.2309401   0.0000000), wk =   0.0300000
        k(    6) = (   0.0000000   0.2886751   0.0000000), wk =   0.0300000
        k(    7) = (   0.0000000   0.3464102   0.0000000), wk =   0.0300000
        k(    8) = (   0.0000000   0.4041452   0.0000000), wk =   0.0300000
        k(    9) = (   0.0000000   0.4618802   0.0000000), wk =   0.0300000
        k(   10) = (   0.0000000   0.5196152   0.0000000), wk =   0.0300000
        k(   11) = (   0.0000000  -0.5773503   0.0000000), wk =   0.0150000
        k(   12) = (   0.0500000   0.0866025   0.0000000), wk =   0.0300000
        k(   13) = (   0.0500000   0.1443376   0.0000000), wk =   0.0600000
        k(   14) = (   0.0500000   0.2020726   0.0000000), wk =   0.0600000
        k(   15) = (   0.0500000   0.2598076   0.0000000), wk =   0.0600000
        k(   16) = (   0.0500000   0.3175426   0.0000000), wk =   0.0600000
        k(   17) = (   0.0500000   0.3752777   0.0000000), wk =   0.0600000
        k(   18) = (   0.0500000   0.4330127   0.0000000), wk =   0.0600000
        k(   19) = (   0.0500000   0.4907477   0.0000000), wk =   0.0600000
        k(   20) = (   0.0500000   0.5484828   0.0000000), wk =   0.0600000
        k(   21) = (   0.1000000   0.1732051   0.0000000), wk =   0.0300000
        k(   22) = (   0.1000000   0.2309401   0.0000000), wk =   0.0600000
        k(   23) = (   0.1000000   0.2886751   0.0000000), wk =   0.0600000
        k(   24) = (   0.1000000   0.3464102   0.0000000), wk =   0.0600000
        k(   25) = (   0.1000000   0.4041452   0.0000000), wk =   0.0600000
        k(   26) = (   0.1000000   0.4618802   0.0000000), wk =   0.0600000
        k(   27) = (   0.1000000   0.5196152   0.0000000), wk =   0.0600000
        k(   28) = (   0.1000000   0.5773503   0.0000000), wk =   0.0300000
        k(   29) = (   0.1500000   0.2598076   0.0000000), wk =   0.0300000
        k(   30) = (   0.1500000   0.3175426   0.0000000), wk =   0.0600000
        k(   31) = (   0.1500000   0.3752777   0.0000000), wk =   0.0600000
        k(   32) = (   0.1500000   0.4330127   0.0000000), wk =   0.0600000
        k(   33) = (   0.1500000   0.4907477   0.0000000), wk =   0.0600000
        k(   34) = (   0.1500000   0.5484828   0.0000000), wk =   0.0600000
        k(   35) = (   0.2000000   0.3464102   0.0000000), wk =   0.0300000
        k(   36) = (   0.2000000   0.4041452   0.0000000), wk =   0.0600000
        k(   37) = (   0.2000000   0.4618802   0.0000000), wk =   0.0600000
        k(   38) = (   0.2000000   0.5196152   0.0000000), wk =   0.0600000
        k(   39) = (   0.2000000   0.5773503   0.0000000), wk =   0.0300000
        k(   40) = (   0.2500000   0.4330127   0.0000000), wk =   0.0300000
        k(   41) = (   0.2500000   0.4907477   0.0000000), wk =   0.0600000
        k(   42) = (   0.2500000   0.5484828   0.0000000), wk =   0.0600000
        k(   43) = (   0.3000000   0.5196152   0.0000000), wk =   0.0300000
        k(   44) = (   0.3000000   0.5773503   0.0000000), wk =   0.0300000

     Dense  grid:   160699 G-vectors     FFT dimensions: (  45,  45, 192)

     Estimated max dynamical RAM per process >     127.69 MB

     Estimated total dynamical RAM >     766.17 MB

     Initial potential from superposition of free atoms

     starting charge   25.99991, renormalised to   28.00000

     negative rho (up, down):  5.017E-03 0.000E+00
     Starting wfcs are   18 randomized atomic wfcs

     total cpu time spent up to now is        3.7 secs

     Self-consistent Calculation

     iteration #  1     ecut=    60.00 Ry     beta= 0.70
     Davidson diagonalization with overlap
     ethr =  1.00E-02,  avg # of iterations =  2.0

     negative rho (up, down):  3.309E-03 0.000E+00

     total cpu time spent up to now is       13.1 secs

     total energy              =    -325.49400325 Ry
     estimated scf accuracy    <       2.41382526 Ry

     iteration #  2     ecut=    60.00 Ry     beta= 0.70
     Davidson diagonalization with overlap
     ethr =  8.62E-03,  avg # of iterations =  2.0

     negative rho (up, down):  3.600E-03 0.000E+00

     total cpu time spent up to now is       23.2 secs

     total energy              =    -326.34786776 Ry
     estimated scf accuracy    <       0.29497919 Ry

     iteration #  3     ecut=    60.00 Ry     beta= 0.70
     Davidson diagonalization with overlap
     ethr =  1.05E-03,  avg # of iterations =  2.0

     negative rho (up, down):  3.777E-03 0.000E+00

     total cpu time spent up to now is       32.7 secs

     total energy              =    -326.38757130 Ry
     estimated scf accuracy    <       0.00612457 Ry

     iteration #  4     ecut=    60.00 Ry     beta= 0.70
     Davidson diagonalization with overlap
     ethr =  2.19E-05,  avg # of iterations =  3.0

     negative rho (up, down):  3.699E-03 0.000E+00

     total cpu time spent up to now is       42.8 secs

     total energy              =    -326.39016023 Ry
     estimated scf accuracy    <       0.00102152 Ry

     iteration #  5     ecut=    60.00 Ry     beta= 0.70
     Davidson diagonalization with overlap
     ethr =  3.65E-06,  avg # of iterations =  2.4

     negative rho (up, down):  3.679E-03 0.000E+00

     total cpu time spent up to now is       52.7 secs

     total energy              =    -326.39042987 Ry
     estimated scf accuracy    <       0.00001412 Ry

     iteration #  6     ecut=    60.00 Ry     beta= 0.70
     Davidson diagonalization with overlap
     ethr =  5.04E-08,  avg # of iterations =  4.8

     negative rho (up, down):  3.679E-03 0.000E+00

     total cpu time spent up to now is       62.6 secs

     total energy              =    -326.39055431 Ry
     estimated scf accuracy    <       0.00000109 Ry

     iteration #  7     ecut=    60.00 Ry     beta= 0.70
     Davidson diagonalization with overlap
     ethr =  3.89E-09,  avg # of iterations =  3.0

     negative rho (up, down):  3.679E-03 0.000E+00

     total cpu time spent up to now is       70.4 secs

     total energy              =    -326.39055441 Ry
     estimated scf accuracy    <       0.00000101 Ry

     iteration #  8     ecut=    60.00 Ry     beta= 0.70
     Davidson diagonalization with overlap
     ethr =  3.62E-09,  avg # of iterations =  1.0

     negative rho (up, down):  3.694E-03 0.000E+00

     total cpu time spent up to now is       76.4 secs

     total energy              =    -326.39055431 Ry
     estimated scf accuracy    <       0.00000105 Ry

     iteration #  9     ecut=    60.00 Ry     beta= 0.70
     Davidson diagonalization with overlap
     ethr =  3.62E-09,  avg # of iterations =  2.0

     negative rho (up, down):  3.681E-03 0.000E+00

     total cpu time spent up to now is       83.6 secs

     End of self-consistent calculation

          k = 0.0000 0.0000 0.0000 ( 20001 PWs)   bands (ev):

   -24.2025 -24.2025 -24.2003 -24.0880 -24.0880 -23.9391 -23.9391 -23.8563
   -23.8563 -23.7913 -12.2866  -4.3387  -3.7522  -3.4280

          k = 0.0000 0.0577 0.0000 ( 20005 PWs)   bands (ev):

   -24.2091 -24.2086 -24.2002 -24.0885 -24.0870 -23.9328 -23.9319 -23.8575
   -23.8558 -23.7912 -12.2653  -4.3166  -4.3147  -3.4760

          k = 0.0000 0.1155 0.0000 ( 19999 PWs)   bands (ev):

   -24.2264 -24.2258 -24.1989 -24.0901 -24.0841 -23.9163 -23.9127 -23.8608
   -23.8542 -23.7906 -12.2014  -5.0133  -4.2504  -3.6066

          k = 0.0000 0.1732 0.0000 ( 20067 PWs)   bands (ev):

   -24.2498 -24.2493 -24.1966 -24.0925 -24.0794 -23.8949 -23.8863 -23.8662
   -23.8518 -23.7889 -12.0953  -5.7049  -4.1411  -3.7887

          k = 0.0000 0.2309 0.0000 ( 20053 PWs)   bands (ev):

   -24.2751 -24.2751 -24.1938 -24.0955 -24.0731 -23.8738 -23.8733 -23.8573
   -23.8488 -23.7846 -11.9481  -6.3748  -3.9911  -3.9902

          k = 0.0000 0.2887 0.0000 ( 20055 PWs)   bands (ev):

   -24.3002 -24.2996 -24.1906 -24.0988 -24.0656 -23.8817 -23.8576 -23.8456
   -23.8286 -23.7763 -11.7614  -7.0135  -4.1897  -3.8004

          k = 0.0000 0.3464 0.0000 ( 20081 PWs)   bands (ev):

   -24.3228 -24.3215 -24.1873 -24.1019 -24.0574 -23.8909 -23.8480 -23.8424
   -23.8026 -23.7640 -11.5389  -7.6123  -4.3681  -3.5764

          k = 0.0000 0.4041 0.0000 ( 20115 PWs)   bands (ev):

   -24.3415 -24.3395 -24.1843 -24.1047 -24.0491 -23.9000 -23.8435 -23.8397
   -23.7809 -23.7504 -11.2881  -8.1594  -4.5154  -3.3269

          k = 0.0000 0.4619 0.0000 ( 20133 PWs)   bands (ev):

   -24.3554 -24.3528 -24.1819 -24.1069 -24.0417 -23.9080 -23.8419 -23.8375
   -23.7646 -23.7386 -11.0268  -8.6344  -4.6249  -3.0704

          k = 0.0000 0.5196 0.0000 ( 20112 PWs)   bands (ev):

   -24.3640 -24.3610 -24.1804 -24.1083 -24.0365 -23.9137 -23.8414 -23.8362
   -23.7545 -23.7308 -10.7988  -8.9914  -4.6921  -2.8500

          k = 0.0000-0.5774 0.0000 ( 20096 PWs)   bands (ev):

   -24.3669 -24.3638 -24.1798 -24.1087 -24.0346 -23.9158 -23.8414 -23.8357
   -23.7510 -23.7281 -10.6985  -9.1349  -4.7148  -2.7543

          k = 0.0500 0.0866 0.0000 ( 19985 PWs)   bands (ev):

   -24.2246 -24.2157 -24.2003 -24.0896 -24.0850 -23.9216 -23.9187 -23.8597
   -23.8547 -23.7908 -12.2227  -4.8240  -4.2724  -3.5726

          k = 0.0500 0.1443 0.0000 ( 20036 PWs)   bands (ev):

   -24.2484 -24.2316 -24.1992 -24.0917 -24.0811 -23.9029 -23.8961 -23.8641
   -23.8526 -23.7896 -12.1377  -5.4565  -4.1847  -3.7449

          k = 0.0500 0.2021 0.0000 ( 20059 PWs)   bands (ev):

   -24.2756 -24.2525 -24.1969 -24.0945 -24.0755 -23.8817 -23.8705 -23.8693
   -23.8499 -23.7864 -12.0110  -6.1053  -4.0545  -3.9537

          k = 0.0500 0.2598 0.0000 ( 20069 PWs)   bands (ev):

   -24.3029 -24.2747 -24.1939 -24.0977 -24.0685 -23.8784 -23.8629 -23.8467
   -23.8422 -23.7792 -11.8438  -6.7407  -4.1684  -3.8839

          k = 0.0500 0.3175 0.0000 ( 20086 PWs)   bands (ev):

   -24.3283 -24.2956 -24.1907 -24.1010 -24.0604 -23.8874 -23.8503 -23.8434
   -23.8172 -23.7669 -11.6386  -7.3475  -4.3680  -3.6765

          k = 0.0500 0.3753 0.0000 ( 20092 PWs)   bands (ev):

   -24.3500 -24.3139 -24.1876 -24.1041 -24.0518 -23.8969 -23.8440 -23.8404
   -23.7958 -23.7514 -11.4006  -7.9136  -4.5391  -3.4383

          k = 0.0500 0.4330 0.0000 ( 20108 PWs)   bands (ev):

   -24.3671 -24.3284 -24.1848 -24.1066 -24.0436 -23.9058 -23.8415 -23.8379
   -23.7788 -23.7366 -11.1411  -8.4228  -4.6732  -3.1818

          k = 0.0500 0.4907 0.0000 ( 20123 PWs)   bands (ev):

   -24.3788 -24.3383 -24.1828 -24.1084 -24.0370 -23.9130 -23.8408 -23.8361
   -23.7670 -23.7253 -10.8873  -8.8446  -4.7652  -2.9346

          k = 0.0500 0.5485 0.0000 ( 20124 PWs)   bands (ev):

   -24.3848 -24.3434 -24.1818 -24.1094 -24.0331 -23.9171 -23.8407 -23.8351
   -23.7609 -23.7194 -10.7073  -9.1091  -4.8119  -2.7619

          k = 0.1000 0.1732 0.0000 ( 20051 PWs)   bands (ev):

   -24.2757 -24.2426 -24.1997 -24.0942 -24.0762 -23.8847 -23.8736 -23.8697
   -23.8501 -23.7867 -12.0320  -6.0019  -4.0760  -3.9657

          k = 0.1000 0.2309 0.0000 ( 20073 PWs)   bands (ev):

   -24.3045 -24.2578 -24.1987 -24.0974 -24.0696 -23.8770 -23.8656 -23.8509
   -23.8470 -23.7798 -11.8851  -6.5792  -4.2141  -3.9259

          k = 0.1000 0.2887 0.0000 ( 20093 PWs)   bands (ev):

   -24.3320 -24.2745 -24.1965 -24.1009 -24.0616 -23.8859 -23.8503 -23.8436
   -23.8310 -23.7666 -11.6989  -7.1558  -4.4539  -3.7370

          k = 0.1000 0.3464 0.0000 ( 20080 PWs)   bands (ev):

   -24.3565 -24.2904 -24.1938 -24.1042 -24.0527 -23.8956 -23.8421 -23.8403
   -23.8129 -23.7487 -11.4766  -7.7122  -4.6651  -3.5137

          k = 0.1000 0.4041 0.0000 ( 20100 PWs)   bands (ev):

   -24.3767 -24.3039 -24.1911 -24.1072 -24.0436 -23.9055 -23.8391 -23.8374
   -23.7971 -23.7307 -11.2255  -8.2311  -4.8366  -3.2642

          k = 0.1000 0.4619 0.0000 ( 20107 PWs)   bands (ev):

   -24.3917 -24.3142 -24.1889 -24.1095 -24.0353 -23.9143 -23.8385 -23.8351
   -23.7848 -23.7159 -10.9622  -8.6897  -4.9624  -3.0059

          k = 0.1000 0.5196 0.0000 ( 20126 PWs)   bands (ev):

   -24.4009 -24.3206 -24.1874 -24.1110 -24.0293 -23.9207 -23.8386 -23.8337
   -23.7771 -23.7064 -10.7296  -9.0410  -5.0391  -2.7811

          k = 0.1000 0.5774 0.0000 ( 20133 PWs)   bands (ev):

   -24.4040 -24.3227 -24.1869 -24.1115 -24.0271 -23.9231 -23.8386 -23.8332
   -23.7745 -23.7032 -10.6255  -9.1849  -5.0648  -2.6818

          k = 0.1500 0.2598 0.0000 ( 20083 PWs)   bands (ev):

   -24.3333 -24.2657 -24.2000 -24.1009 -24.0619 -23.8855 -23.8490 -23.8436
   -23.8373 -23.7662 -11.7190  -7.0839  -4.5006  -3.7573

          k = 0.1500 0.3175 0.0000 ( 20074 PWs)   bands (ev):

   -24.3599 -24.2750 -24.1999 -24.1046 -24.0527 -23.8954 -23.8401 -23.8373
   -23.8264 -23.7469 -11.5149  -7.5943  -4.7678  -3.5518

          k = 0.1500 0.3753 0.0000 ( 20083 PWs)   bands (ev):

   -24.3826 -24.2845 -24.1988 -24.1080 -24.0428 -23.9060 -23.8368 -23.8341
   -23.8131 -23.7264 -11.2773  -8.0915  -4.9935  -3.3148

          k = 0.1500 0.4330 0.0000 ( 20109 PWs)   bands (ev):

   -24.4006 -24.2926 -24.1973 -24.1108 -24.0330 -23.9164 -23.8341 -23.8340
   -23.8013 -23.7087 -11.0160  -8.5554  -5.1675  -3.0570

          k = 0.1500 0.4907 0.0000 ( 20114 PWs)   bands (ev):

   -24.4129 -24.2985 -24.1960 -24.1129 -24.0245 -23.9253 -23.8348 -23.8321
   -23.7929 -23.6959 -10.7555  -8.9545  -5.2852  -2.8036

          k = 0.1500 0.5485 0.0000 ( 20099 PWs)   bands (ev):

   -24.4192 -24.3016 -24.1953 -24.1139 -24.0194 -23.9306 -23.8353 -23.8310
   -23.7885 -23.6892 -10.5638  -9.2166  -5.3444  -2.6198

          k = 0.2000 0.3464 0.0000 ( 20095 PWs)   bands (ev):

   -24.3846 -24.2764 -24.2028 -24.1083 -24.0424 -23.9063 -23.8365 -23.8267
   -23.8244 -23.7249 -11.2947  -8.0393  -5.0565  -3.3318

          k = 0.2000 0.4041 0.0000 ( 20095 PWs)   bands (ev):

   -24.4051 -24.2783 -24.2047 -24.1116 -24.0314 -23.9179 -23.8333 -23.8277
   -23.8142 -23.7049 -11.0439  -8.4755  -5.2935  -3.0836

          k = 0.2000 0.4619 0.0000 ( 20104 PWs)   bands (ev):

   -24.4204 -24.2804 -24.2056 -24.1143 -24.0205 -23.9291 -23.8308 -23.8294
   -23.8061 -23.6891 -10.7754  -8.8822  -5.4670  -2.8209

          k = 0.2000 0.5196 0.0000 ( 20124 PWs)   bands (ev):

   -24.4297 -24.2819 -24.2059 -24.1159 -24.0119 -23.9381 -23.8307 -23.8292
   -23.8011 -23.6792 -10.5262  -9.2168  -5.5722  -2.5803

          k = 0.2000 0.5774 0.0000 ( 20119 PWs)   bands (ev):

   -24.4329 -24.2824 -24.2059 -24.1165 -24.0083 -23.9417 -23.8312 -23.8287
   -23.7993 -23.6757 -10.4058  -9.3660  -5.6074  -2.4655

          k = 0.2500 0.4330 0.0000 ( 20133 PWs)   bands (ev):

   -24.4229 -24.2726 -24.2104 -24.1148 -24.0190 -23.9307 -23.8303 -23.8251
   -23.8132 -23.6868 -10.7828  -8.8539  -5.5336  -2.8273

          k = 0.2500 0.4907 0.0000 ( 20129 PWs)   bands (ev):

   -24.4351 -24.2678 -24.2152 -24.1171 -24.0068 -23.9430 -23.8282 -23.8255
   -23.8105 -23.6739 -10.5095  -9.2077  -5.6990  -2.5620

          k = 0.2500 0.5485 0.0000 ( 20105 PWs)   bands (ev):

   -24.4413 -24.2651 -24.2180 -24.1183 -23.9979 -23.9521 -23.8271 -23.8263
   -23.8086 -23.6673 -10.2816  -9.4768  -5.7828  -2.3434

          k = 0.3000 0.5196 0.0000 ( 20105 PWs)   bands (ev):

   -24.4442 -24.2560 -24.2253 -24.1189 -23.9929 -23.9571 -23.8265 -23.8227
   -23.8137 -23.6644 -10.2313  -9.5210  -5.8443  -2.2936

          k = 0.3000 0.5774 0.0000 ( 20093 PWs)   bands (ev):

   -24.4472 -24.2492 -24.2315 -24.1195 -23.9838 -23.9662 -23.8259 -23.8215
   -23.8151 -23.6611 -10.0382  -9.7256  -5.8937  -2.1092

     highest occupied level (ev):    -2.1092

!    total energy              =    -326.39055387 Ry
     estimated scf accuracy    <       0.00000081 Ry

     The total energy is the sum of the following terms:
     one-electron contribution =    -882.70365087 Ry
     hartree contribution      =     448.40113153 Ry
     xc contribution           =     -95.06633827 Ry
     ewald contribution        =     202.97830373 Ry

     convergence has been achieved in   9 iterations

     Writing output data file ../tmp/stanene.save/

     init_run     :      3.41s CPU      3.61s WALL (       1 calls)
     electrons    :     76.96s CPU     79.92s WALL (       1 calls)

     Called by init_run:
     wfcinit      :      3.01s CPU      3.17s WALL (       1 calls)
     potinit      :      0.11s CPU      0.12s WALL (       1 calls)
     hinit0       :      0.17s CPU      0.17s WALL (       1 calls)

     Called by electrons:
     c_bands      :     65.81s CPU     67.92s WALL (       9 calls)
     sum_band     :      9.72s CPU     10.39s WALL (       9 calls)
     v_of_rho     :      0.49s CPU      0.50s WALL (      10 calls)
     newd         :      0.92s CPU      1.11s WALL (      10 calls)
     mix_rho      :      0.11s CPU      0.11s WALL (       9 calls)

     Called by c_bands:
     init_us_2    :      0.78s CPU      0.80s WALL (     836 calls)
     cegterg      :     62.84s CPU     64.94s WALL (     396 calls)

     Called by *egterg:
     cdiaghg      :      0.71s CPU      0.71s WALL (    1373 calls)
     h_psi        :     43.00s CPU     45.17s WALL (    1417 calls)
     s_psi        :      3.14s CPU      3.18s WALL (    1417 calls)
     g_psi        :      0.29s CPU      0.29s WALL (     977 calls)

     Called by h_psi:
     h_psi:calbec :      5.25s CPU      5.45s WALL (    1417 calls)
     vloc_psi     :     34.25s CPU     36.15s WALL (    1417 calls)
     add_vuspsi   :      3.34s CPU      3.40s WALL (    1417 calls)

     General routines
     calbec       :      7.08s CPU      7.34s WALL (    1813 calls)
     fft          :      0.37s CPU      0.38s WALL (     110 calls)
     ffts         :      0.02s CPU      0.02s WALL (       9 calls)
     fftw         :     36.81s CPU     38.78s WALL (   37730 calls)

     Parallel routines
     fft_scatt_xy :      3.37s CPU      3.63s WALL (   37849 calls)
     fft_scatt_yz :     19.50s CPU     20.29s WALL (   37849 calls)

     PWSCF        :   1m20.54s CPU   1m23.84s WALL


   This run was terminated on:  21:11:22  20Jan2024            

=------------------------------------------------------------------------------=
   JOB DONE.
=------------------------------------------------------------------------------=
