
     Program PWSCF v.6.7MaX starts on 20Jan2024 at 21: 4:53 

     This program is part of the open-source Quantum ESPRESSO suite
     for quantum simulation of materials; please cite
         "P. Giannozzi et al., J. Phys.:Condens. Matter 21 395502 (2009);
         "P. Giannozzi et al., J. Phys.:Condens. Matter 29 465901 (2017);
          URL http://www.quantum-espresso.org", 
     in publications or presentations arising from this work. More details at
     http://www.quantum-espresso.org/quote

     Parallel version (MPI), running on     6 processors

     MPI processes distributed on     1 nodes
     R & G space division:  proc/nbgrp/npool/nimage =       6
     Waiting for input...
     Reading input from standard input

     Current dimensions of program PWSCF are:
     Max number of different atomic species (ntypx) = 10
     Max number of k-points (npk) =  40000
     Max angular momentum in pseudopotentials (lmaxx) =  3

     Subspace diagonalization in iterative solution of the eigenvalue problem:
     one sub-group per band group will be used
     scalapack distributed-memory algorithm (size of sub-group:  2*  2 procs)


     Parallelization info
     --------------------
     sticks:   dense  smooth     PW     G-vecs:    dense   smooth      PW
     Min         214     214     61                26776    26776    4007
     Max         215     215     62                26799    26799    4017
     Sum        1285    1285    367               160699   160699   24069



     bravais-lattice index     =            4
     lattice parameter (alat)  =       8.8439  a.u.
     unit-cell volume          =    2560.0529 (a.u.)^3
     number of atoms/cell      =            2
     number of atomic types    =            1
     number of electrons       =        28.00
     number of Kohn-Sham states=           14
     kinetic-energy cutoff     =      60.0000  Ry
     charge density cutoff     =     240.0000  Ry
     scf convergence threshold =      1.0E-06
     mixing beta               =       0.7000
     number of iterations used =            8  plain     mixing
     Exchange-correlation= SLA  PW   PBE  PBE
                           (   1   4   3   4   0   0   0)

     celldm(1)=   8.843918  celldm(2)=   0.000000  celldm(3)=   4.273504
     celldm(4)=   0.000000  celldm(5)=   0.000000  celldm(6)=   0.000000

     crystal axes: (cart. coord. in units of alat)
               a(1) = (   1.000000   0.000000   0.000000 )  
               a(2) = (  -0.500000   0.866025   0.000000 )  
               a(3) = (   0.000000   0.000000   4.273504 )  

     reciprocal axes: (cart. coord. in units 2 pi/alat)
               b(1) = (  1.000000  0.577350 -0.000000 )  
               b(2) = (  0.000000  1.154701  0.000000 )  
               b(3) = (  0.000000 -0.000000  0.234000 )  


     PseudoPot. # 1 for Sn read from file:
     ../pseudo/Sn_pbe_v1.uspp.F.UPF
     MD5 check sum: 4cf58ce39ec5d5d420df3dd08604eb00
     Pseudo is Ultrasoft + core correction, Zval = 14.0
     Generated by new atomic code, or converted to UPF format
     Using radial grid of  891 points,  6 beta functions with: 
                l(1) =   0
                l(2) =   0
                l(3) =   1
                l(4) =   1
                l(5) =   2
                l(6) =   2
     Q(r) pseudized with  6 coefficients,  rinner =    1.200   1.200   1.200
                                                       1.200   1.200

     atomic species   valence    mass     pseudopotential
        Sn            14.00   118.71000     Sn( 1.00)

     24 Sym. Ops., with inversion, found



   Cartesian axes

     site n.     atom                  positions (alat units)
         1           Sn  tau(   1) = (   0.0000000   0.5773503   2.1367521  )
         2           Sn  tau(   2) = (   0.5000000   0.2886751   2.1367521  )

     number of k points=    27
                       cart. coord. in units 2pi/alat
        k(    1) = (   0.0000000   0.0000000   0.0000000), wk =   0.0088889
        k(    2) = (   0.0000000   0.0769800   0.0000000), wk =   0.0533333
        k(    3) = (   0.0000000   0.1539601   0.0000000), wk =   0.0533333
        k(    4) = (   0.0000000   0.2309401   0.0000000), wk =   0.0533333
        k(    5) = (   0.0000000   0.3079201   0.0000000), wk =   0.0533333
        k(    6) = (   0.0000000   0.3849002   0.0000000), wk =   0.0533333
        k(    7) = (   0.0000000   0.4618802   0.0000000), wk =   0.0533333
        k(    8) = (   0.0000000   0.5388603   0.0000000), wk =   0.0533333
        k(    9) = (   0.0666667   0.1154701   0.0000000), wk =   0.0533333
        k(   10) = (   0.0666667   0.1924501   0.0000000), wk =   0.1066667
        k(   11) = (   0.0666667   0.2694301   0.0000000), wk =   0.1066667
        k(   12) = (   0.0666667   0.3464102   0.0000000), wk =   0.1066667
        k(   13) = (   0.0666667   0.4233902   0.0000000), wk =   0.1066667
        k(   14) = (   0.0666667   0.5003702   0.0000000), wk =   0.1066667
        k(   15) = (   0.0666667   0.5773503   0.0000000), wk =   0.0533333
        k(   16) = (   0.1333333   0.2309401   0.0000000), wk =   0.0533333
        k(   17) = (   0.1333333   0.3079201   0.0000000), wk =   0.1066667
        k(   18) = (   0.1333333   0.3849002   0.0000000), wk =   0.1066667
        k(   19) = (   0.1333333   0.4618802   0.0000000), wk =   0.1066667
        k(   20) = (   0.1333333   0.5388603   0.0000000), wk =   0.1066667
        k(   21) = (   0.2000000   0.3464102   0.0000000), wk =   0.0533333
        k(   22) = (   0.2000000   0.4233902   0.0000000), wk =   0.1066667
        k(   23) = (   0.2000000   0.5003702   0.0000000), wk =   0.1066667
        k(   24) = (   0.2000000   0.5773503   0.0000000), wk =   0.0533333
        k(   25) = (   0.2666667   0.4618802   0.0000000), wk =   0.0533333
        k(   26) = (   0.2666667   0.5388603   0.0000000), wk =   0.1066667
        k(   27) = (   0.3333333   0.5773503   0.0000000), wk =   0.0177778

     Dense  grid:   160699 G-vectors     FFT dimensions: (  45,  45, 192)

     Estimated max dynamical RAM per process >     115.54 MB

     Estimated total dynamical RAM >     693.22 MB

     Initial potential from superposition of free atoms

     starting charge   25.99991, renormalised to   28.00000

     negative rho (up, down):  5.017E-03 0.000E+00
     Starting wfcs are   18 randomized atomic wfcs

     total cpu time spent up to now is        2.5 secs

     Self-consistent Calculation

     iteration #  1     ecut=    60.00 Ry     beta= 0.70
     Davidson diagonalization with overlap
     ethr =  1.00E-02,  avg # of iterations =  2.0

     negative rho (up, down):  3.314E-03 0.000E+00

     total cpu time spent up to now is        8.8 secs

     total energy              =    -325.49380781 Ry
     estimated scf accuracy    <       2.41389686 Ry

     iteration #  2     ecut=    60.00 Ry     beta= 0.70
     Davidson diagonalization with overlap
     ethr =  8.62E-03,  avg # of iterations =  2.0

     negative rho (up, down):  3.602E-03 0.000E+00

     total cpu time spent up to now is       14.8 secs

     total energy              =    -326.34769324 Ry
     estimated scf accuracy    <       0.29499874 Ry

     iteration #  3     ecut=    60.00 Ry     beta= 0.70
     Davidson diagonalization with overlap
     ethr =  1.05E-03,  avg # of iterations =  2.0

     negative rho (up, down):  3.778E-03 0.000E+00

     total cpu time spent up to now is       21.4 secs

     total energy              =    -326.38739657 Ry
     estimated scf accuracy    <       0.00612029 Ry

     iteration #  4     ecut=    60.00 Ry     beta= 0.70
     Davidson diagonalization with overlap
     ethr =  2.19E-05,  avg # of iterations =  3.0

     negative rho (up, down):  3.699E-03 0.000E+00

     total cpu time spent up to now is       27.7 secs

     total energy              =    -326.38992872 Ry
     estimated scf accuracy    <       0.00102412 Ry

     iteration #  5     ecut=    60.00 Ry     beta= 0.70
     Davidson diagonalization with overlap
     ethr =  3.66E-06,  avg # of iterations =  2.4

     negative rho (up, down):  3.679E-03 0.000E+00

     total cpu time spent up to now is       34.0 secs

     total energy              =    -326.39019696 Ry
     estimated scf accuracy    <       0.00001230 Ry

     iteration #  6     ecut=    60.00 Ry     beta= 0.70
     Davidson diagonalization with overlap
     ethr =  4.39E-08,  avg # of iterations =  4.8

     negative rho (up, down):  3.680E-03 0.000E+00

     total cpu time spent up to now is       40.9 secs

     total energy              =    -326.39041453 Ry
     estimated scf accuracy    <       0.00000251 Ry

     iteration #  7     ecut=    60.00 Ry     beta= 0.70
     Davidson diagonalization with overlap
     ethr =  8.96E-09,  avg # of iterations =  1.9

     negative rho (up, down):  3.680E-03 0.000E+00

     total cpu time spent up to now is       46.9 secs

     total energy              =    -326.39041333 Ry
     estimated scf accuracy    <       0.00000326 Ry

     iteration #  8     ecut=    60.00 Ry     beta= 0.70
     Davidson diagonalization with overlap
     ethr =  8.96E-09,  avg # of iterations =  2.1

     negative rho (up, down):  3.681E-03 0.000E+00

     total cpu time spent up to now is       53.1 secs

     End of self-consistent calculation

          k = 0.0000 0.0000 0.0000 ( 20001 PWs)   bands (ev):

   -24.2037 -24.2037 -24.2016 -24.0892 -24.0892 -23.9403 -23.9403 -23.8575
   -23.8575 -23.7924 -12.2918  -4.3433  -3.7568  -3.4334

          k = 0.0000 0.0770 0.0000 ( 19999 PWs)   bands (ev):

   -24.2151 -24.2145 -24.2012 -24.0902 -24.0875 -23.9294 -23.9278 -23.8595
   -23.8565 -23.7922 -12.2539  -4.5516  -4.3040  -3.5171

          k = 0.0000 0.1540 0.0000 ( 20061 PWs)   bands (ev):

   -24.2428 -24.2423 -24.1988 -24.0929 -24.0824 -23.9034 -23.8967 -23.8654
   -23.8538 -23.7908 -12.1405  -5.4813  -4.1869  -3.7297

          k = 0.0000 0.2309 0.0000 ( 20053 PWs)   bands (ev):

   -24.2764 -24.2764 -24.1951 -24.0968 -24.0744 -23.8750 -23.8745 -23.8584
   -23.8500 -23.7858 -11.9533  -6.3799  -3.9965  -3.9948

          k = 0.0000 0.3079 0.0000 ( 20057 PWs)   bands (ev):

   -24.3094 -24.3086 -24.1908 -24.1011 -24.0642 -23.8859 -23.8548 -23.8457
   -23.8207 -23.7737 -11.6961  -7.2231  -4.2574  -3.7338

          k = 0.0000 0.3849 0.0000 ( 20131 PWs)   bands (ev):

   -24.3370 -24.3352 -24.1866 -24.1051 -24.0531 -23.8982 -23.8458 -23.8417
   -23.7887 -23.7560 -11.3793  -7.9888  -4.4757  -3.4167

          k = 0.0000 0.4619 0.0000 ( 20133 PWs)   bands (ev):

   -24.3567 -24.3541 -24.1832 -24.1082 -24.0430 -23.9092 -23.8431 -23.8387
   -23.7656 -23.7397 -11.0319  -8.6396  -4.6303  -3.0749

          k = 0.0000 0.5389 0.0000 ( 20114 PWs)   bands (ev):

   -24.3669 -24.3638 -24.1814 -24.1098 -24.0367 -23.9160 -23.8426 -23.8371
   -23.7536 -23.7304 -10.7504  -9.0741  -4.7101  -2.8034

          k = 0.0667 0.1155 0.0000 ( 20017 PWs)   bands (ev):

   -24.2410 -24.2254 -24.2014 -24.0921 -24.0840 -23.9113 -23.9060 -23.8635
   -23.8546 -23.7914 -12.1782  -5.2291  -4.2257  -3.6857

          k = 0.0667 0.1925 0.0000 ( 20055 PWs)   bands (ev):

   -24.2769 -24.2485 -24.1996 -24.0956 -24.0772 -23.8844 -23.8728 -23.8712
   -23.8512 -23.7877 -12.0278  -6.0540  -4.0710  -3.9638

          k = 0.0667 0.2694 0.0000 ( 20083 PWs)   bands (ev):

   -24.3139 -24.2758 -24.1959 -24.1000 -24.0677 -23.8819 -23.8600 -23.8469
   -23.8388 -23.7770 -11.8051  -6.8802  -4.2611  -3.8440

          k = 0.0667 0.3464 0.0000 ( 20089 PWs)   bands (ev):

   -24.3467 -24.3012 -24.1917 -24.1043 -24.0564 -23.8943 -23.8465 -23.8426
   -23.8092 -23.7573 -11.5163  -7.6608  -4.5246  -3.5530

          k = 0.0667 0.4234 0.0000 ( 20097 PWs)   bands (ev):

   -24.3720 -24.3212 -24.1879 -24.1080 -24.0450 -23.9067 -23.8421 -23.8389
   -23.7860 -23.7356 -11.1779  -8.3604  -4.7265  -3.2172

          k = 0.0667 0.5004 0.0000 ( 20117 PWs)   bands (ev):

   -24.3879 -24.3339 -24.1853 -24.1105 -24.0360 -23.9165 -23.8413 -23.8365
   -23.7711 -23.7201 -10.8415  -8.9172  -4.8523  -2.8896

          k = 0.0667 0.5774 0.0000 ( 20118 PWs)   bands (ev):

   -24.3933 -24.3382 -24.1843 -24.1114 -24.0324 -23.9203 -23.8413 -23.8357
   -23.7660 -23.7146 -10.6712  -9.1615  -4.8949  -2.7267

          k = 0.1333 0.2309 0.0000 ( 20089 PWs)   bands (ev):

   -24.3156 -24.2604 -24.2010 -24.0998 -24.0685 -23.8808 -23.8611 -23.8474
   -23.8471 -23.7772 -11.8416  -6.7413  -4.3197  -3.8809

          k = 0.1333 0.3079 0.0000 ( 20081 PWs)   bands (ev):

   -24.3521 -24.2760 -24.2001 -24.1046 -24.0571 -23.8932 -23.8427 -23.8425
   -23.8284 -23.7551 -11.5856  -7.4518  -4.6694  -3.6222

          k = 0.1333 0.3849 0.0000 ( 20094 PWs)   bands (ev):

   -24.3824 -24.2913 -24.1976 -24.1090 -24.0443 -23.9070 -23.8381 -23.8373
   -23.8092 -23.7286 -11.2690  -8.1350  -4.9537  -3.3062

          k = 0.1333 0.4619 0.0000 ( 20121 PWs)   bands (ev):

   -24.4038 -24.3030 -24.1951 -24.1124 -24.0322 -23.9199 -23.8371 -23.8348
   -23.7940 -23.7072 -10.9178  -8.7415  -5.1500  -2.9612

          k = 0.1333 0.5389 0.0000 ( 20110 PWs)   bands (ev):

   -24.4149 -24.3093 -24.1936 -24.1142 -24.0242 -23.9283 -23.8377 -23.8331
   -23.7858 -23.6956 -10.6243  -9.1658  -5.2497  -2.6782

          k = 0.2000 0.3464 0.0000 ( 20095 PWs)   bands (ev):

   -24.3860 -24.2777 -24.2041 -24.1096 -24.0437 -23.9075 -23.8377 -23.8279
   -23.8255 -23.7260 -11.2999  -8.0444  -5.0618  -3.3364

          k = 0.2000 0.4234 0.0000 ( 20097 PWs)   bands (ev):

   -24.4121 -24.2803 -24.2064 -24.1139 -24.0289 -23.9230 -23.8335 -23.8295
   -23.8123 -23.7001 -10.9605  -8.6208  -5.3640  -3.0012

          k = 0.2000 0.5004 0.0000 ( 20117 PWs)   bands (ev):

   -24.4286 -24.2828 -24.2071 -24.1168 -24.0156 -23.9367 -23.8315 -23.8308
   -23.8035 -23.6828 -10.6077  -9.1232  -5.5502  -2.6583

          k = 0.2000 0.5774 0.0000 ( 20119 PWs)   bands (ev):

   -24.4342 -24.2837 -24.2072 -24.1178 -24.0096 -23.9429 -23.8324 -23.8298
   -23.8004 -23.6768 -10.4110  -9.3712  -5.6127  -2.4701

          k = 0.2667 0.4619 0.0000 ( 20123 PWs)   bands (ev):

   -24.4333 -24.2696 -24.2157 -24.1178 -24.0117 -23.9405 -23.8299 -23.8258
   -23.8134 -23.6783 -10.6051  -9.0980  -5.6655  -2.6539

          k = 0.2667 0.5389 0.0000 ( 20097 PWs)   bands (ev):

   -24.4442 -24.2618 -24.2229 -24.1199 -23.9965 -23.9559 -23.8279 -23.8258
   -23.8122 -23.6667 -10.2595  -9.5058  -5.8222  -2.3211

          k = 0.3333 0.5774 0.0000 ( 20085 PWs)   bands (ev):

   -24.4496 -24.2414 -24.2414 -24.1210 -23.9763 -23.9763 -23.8269 -23.8196
   -23.8196 -23.6611  -9.8876  -9.8876  -5.9176  -1.9649

     highest occupied level (ev):    -1.9649

!    total energy              =    -326.39041366 Ry
     estimated scf accuracy    <       0.00000012 Ry

     The total energy is the sum of the following terms:
     one-electron contribution =    -882.70057307 Ry
     hartree contribution      =     448.39694808 Ry
     xc contribution           =     -95.06509240 Ry
     ewald contribution        =     202.97830373 Ry

     convergence has been achieved in   8 iterations

     Writing output data file ../tmp/stanene.save/

     init_run     :      2.33s CPU      2.41s WALL (       1 calls)
     electrons    :     49.04s CPU     50.59s WALL (       1 calls)

     Called by init_run:
     wfcinit      :      1.86s CPU      1.93s WALL (       1 calls)
     potinit      :      0.13s CPU      0.13s WALL (       1 calls)
     hinit0       :      0.18s CPU      0.18s WALL (       1 calls)

     Called by electrons:
     c_bands      :     41.61s CPU     42.57s WALL (       8 calls)
     sum_band     :      5.92s CPU      6.40s WALL (       8 calls)
     v_of_rho     :      0.52s CPU      0.52s WALL (       9 calls)
     newd         :      1.03s CPU      1.15s WALL (       9 calls)
     mix_rho      :      0.09s CPU      0.09s WALL (       8 calls)

     Called by c_bands:
     init_us_2    :      0.44s CPU      0.44s WALL (     459 calls)
     cegterg      :     39.79s CPU     40.75s WALL (     216 calls)

     Called by *egterg:
     cdiaghg      :      0.46s CPU      0.46s WALL (     763 calls)
     h_psi        :     27.34s CPU     28.33s WALL (     790 calls)
     s_psi        :      1.81s CPU      1.83s WALL (     790 calls)
     g_psi        :      0.17s CPU      0.17s WALL (     547 calls)

     Called by h_psi:
     h_psi:calbec :      3.25s CPU      3.35s WALL (     790 calls)
     vloc_psi     :     22.09s CPU     22.96s WALL (     790 calls)
     add_vuspsi   :      1.90s CPU      1.94s WALL (     790 calls)

     General routines
     calbec       :      4.26s CPU      4.40s WALL (    1006 calls)
     fft          :      0.37s CPU      0.38s WALL (      99 calls)
     ffts         :      0.01s CPU      0.01s WALL (       8 calls)
     fftw         :     23.55s CPU     24.46s WALL (   21718 calls)

     Parallel routines
     fft_scatt_xy :      2.11s CPU      2.21s WALL (   21825 calls)
     fft_scatt_yz :     13.13s CPU     13.57s WALL (   21825 calls)

     PWSCF        :     51.51s CPU     53.25s WALL


   This run was terminated on:  21: 5:47  20Jan2024            

=------------------------------------------------------------------------------=
   JOB DONE.
=------------------------------------------------------------------------------=
