
     Program PWSCF v.6.7MaX starts on 20Jan2024 at 21: 2:46 

     This program is part of the open-source Quantum ESPRESSO suite
     for quantum simulation of materials; please cite
         "P. Giannozzi et al., J. Phys.:Condens. Matter 21 395502 (2009);
         "P. Giannozzi et al., J. Phys.:Condens. Matter 29 465901 (2017);
          URL http://www.quantum-espresso.org", 
     in publications or presentations arising from this work. More details at
     http://www.quantum-espresso.org/quote

     Parallel version (MPI), running on     6 processors

     MPI processes distributed on     1 nodes
     R & G space division:  proc/nbgrp/npool/nimage =       6
     Waiting for input...
     Reading input from standard input

     Current dimensions of program PWSCF are:
     Max number of different atomic species (ntypx) = 10
     Max number of k-points (npk) =  40000
     Max angular momentum in pseudopotentials (lmaxx) =  3

     Subspace diagonalization in iterative solution of the eigenvalue problem:
     one sub-group per band group will be used
     scalapack distributed-memory algorithm (size of sub-group:  2*  2 procs)


     Parallelization info
     --------------------
     sticks:   dense  smooth     PW     G-vecs:    dense   smooth      PW
     Min         214     214     61                26776    26776    4007
     Max         215     215     62                26799    26799    4017
     Sum        1285    1285    367               160699   160699   24069



     bravais-lattice index     =            4
     lattice parameter (alat)  =       8.8439  a.u.
     unit-cell volume          =    2560.0529 (a.u.)^3
     number of atoms/cell      =            2
     number of atomic types    =            1
     number of electrons       =        28.00
     number of Kohn-Sham states=           14
     kinetic-energy cutoff     =      60.0000  Ry
     charge density cutoff     =     240.0000  Ry
     scf convergence threshold =      1.0E-06
     mixing beta               =       0.7000
     number of iterations used =            8  plain     mixing
     Exchange-correlation= SLA  PW   PBE  PBE
                           (   1   4   3   4   0   0   0)

     celldm(1)=   8.843918  celldm(2)=   0.000000  celldm(3)=   4.273504
     celldm(4)=   0.000000  celldm(5)=   0.000000  celldm(6)=   0.000000

     crystal axes: (cart. coord. in units of alat)
               a(1) = (   1.000000   0.000000   0.000000 )  
               a(2) = (  -0.500000   0.866025   0.000000 )  
               a(3) = (   0.000000   0.000000   4.273504 )  

     reciprocal axes: (cart. coord. in units 2 pi/alat)
               b(1) = (  1.000000  0.577350 -0.000000 )  
               b(2) = (  0.000000  1.154701  0.000000 )  
               b(3) = (  0.000000 -0.000000  0.234000 )  


     PseudoPot. # 1 for Sn read from file:
     ../pseudo/Sn_pbe_v1.uspp.F.UPF
     MD5 check sum: 4cf58ce39ec5d5d420df3dd08604eb00
     Pseudo is Ultrasoft + core correction, Zval = 14.0
     Generated by new atomic code, or converted to UPF format
     Using radial grid of  891 points,  6 beta functions with: 
                l(1) =   0
                l(2) =   0
                l(3) =   1
                l(4) =   1
                l(5) =   2
                l(6) =   2
     Q(r) pseudized with  6 coefficients,  rinner =    1.200   1.200   1.200
                                                       1.200   1.200

     atomic species   valence    mass     pseudopotential
        Sn            14.00   118.71000     Sn( 1.00)

     24 Sym. Ops., with inversion, found



   Cartesian axes

     site n.     atom                  positions (alat units)
         1           Sn  tau(   1) = (   0.0000000   0.5773503   2.1367521  )
         2           Sn  tau(   2) = (   0.5000000   0.2886751   2.1367521  )

     number of k points=    19
                       cart. coord. in units 2pi/alat
        k(    1) = (   0.0000000   0.0000000   0.0000000), wk =   0.0138889
        k(    2) = (   0.0000000   0.0962250   0.0000000), wk =   0.0833333
        k(    3) = (   0.0000000   0.1924501   0.0000000), wk =   0.0833333
        k(    4) = (   0.0000000   0.2886751   0.0000000), wk =   0.0833333
        k(    5) = (   0.0000000   0.3849002   0.0000000), wk =   0.0833333
        k(    6) = (   0.0000000   0.4811252   0.0000000), wk =   0.0833333
        k(    7) = (   0.0000000  -0.5773503   0.0000000), wk =   0.0416667
        k(    8) = (   0.0833333   0.1443376   0.0000000), wk =   0.0833333
        k(    9) = (   0.0833333   0.2405626   0.0000000), wk =   0.1666667
        k(   10) = (   0.0833333   0.3367877   0.0000000), wk =   0.1666667
        k(   11) = (   0.0833333   0.4330127   0.0000000), wk =   0.1666667
        k(   12) = (   0.0833333   0.5292377   0.0000000), wk =   0.1666667
        k(   13) = (   0.1666667   0.2886751   0.0000000), wk =   0.0833333
        k(   14) = (   0.1666667   0.3849002   0.0000000), wk =   0.1666667
        k(   15) = (   0.1666667   0.4811252   0.0000000), wk =   0.1666667
        k(   16) = (   0.1666667   0.5773503   0.0000000), wk =   0.0833333
        k(   17) = (   0.2500000   0.4330127   0.0000000), wk =   0.0833333
        k(   18) = (   0.2500000   0.5292377   0.0000000), wk =   0.1666667
        k(   19) = (   0.3333333   0.5773503   0.0000000), wk =   0.0277778

     Dense  grid:   160699 G-vectors     FFT dimensions: (  45,  45, 192)

     Estimated max dynamical RAM per process >     109.81 MB

     Estimated total dynamical RAM >     658.89 MB

     Initial potential from superposition of free atoms

     starting charge   25.99991, renormalised to   28.00000

     negative rho (up, down):  5.017E-03 0.000E+00
     Starting wfcs are   18 randomized atomic wfcs

     total cpu time spent up to now is        2.1 secs

     Self-consistent Calculation

     iteration #  1     ecut=    60.00 Ry     beta= 0.70
     Davidson diagonalization with overlap
     ethr =  1.00E-02,  avg # of iterations =  2.0

     negative rho (up, down):  3.314E-03 0.000E+00

     total cpu time spent up to now is        6.7 secs

     total energy              =    -325.49362238 Ry
     estimated scf accuracy    <       2.41400770 Ry

     iteration #  2     ecut=    60.00 Ry     beta= 0.70
     Davidson diagonalization with overlap
     ethr =  8.62E-03,  avg # of iterations =  2.0

     negative rho (up, down):  3.603E-03 0.000E+00

     total cpu time spent up to now is       11.4 secs

     total energy              =    -326.34747059 Ry
     estimated scf accuracy    <       0.29499310 Ry

     iteration #  3     ecut=    60.00 Ry     beta= 0.70
     Davidson diagonalization with overlap
     ethr =  1.05E-03,  avg # of iterations =  2.0

     negative rho (up, down):  3.778E-03 0.000E+00

     total cpu time spent up to now is       16.3 secs

     total energy              =    -326.38710543 Ry
     estimated scf accuracy    <       0.00613119 Ry

     iteration #  4     ecut=    60.00 Ry     beta= 0.70
     Davidson diagonalization with overlap
     ethr =  2.19E-05,  avg # of iterations =  3.1

     negative rho (up, down):  3.699E-03 0.000E+00

     total cpu time spent up to now is       21.3 secs

     total energy              =    -326.38964299 Ry
     estimated scf accuracy    <       0.00103744 Ry

     iteration #  5     ecut=    60.00 Ry     beta= 0.70
     Davidson diagonalization with overlap
     ethr =  3.71E-06,  avg # of iterations =  2.2

     negative rho (up, down):  3.680E-03 0.000E+00

     total cpu time spent up to now is       26.0 secs

     total energy              =    -326.38991080 Ry
     estimated scf accuracy    <       0.00001139 Ry

     iteration #  6     ecut=    60.00 Ry     beta= 0.70
     Davidson diagonalization with overlap
     ethr =  4.07E-08,  avg # of iterations =  5.1

     negative rho (up, down):  3.681E-03 0.000E+00

     total cpu time spent up to now is       30.9 secs

     total energy              =    -326.39024832 Ry
     estimated scf accuracy    <       0.00000574 Ry

     iteration #  7     ecut=    60.00 Ry     beta= 0.70
     Davidson diagonalization with overlap
     ethr =  2.05E-08,  avg # of iterations =  1.0

     negative rho (up, down):  3.679E-03 0.000E+00

     total cpu time spent up to now is       34.1 secs

     total energy              =    -326.39024620 Ry
     estimated scf accuracy    <       0.00000646 Ry

     iteration #  8     ecut=    60.00 Ry     beta= 0.70
     Davidson diagonalization with overlap
     ethr =  2.05E-08,  avg # of iterations =  2.0

     negative rho (up, down):  3.681E-03 0.000E+00

     total cpu time spent up to now is       37.3 secs

     End of self-consistent calculation

          k = 0.0000 0.0000 0.0000 ( 20001 PWs)   bands (ev):

   -24.2036 -24.2036 -24.2022 -24.0897 -24.0897 -23.9402 -23.9402 -23.8580
   -23.8580 -23.7931 -12.2921  -4.3439  -3.7572  -3.4335

          k = 0.0000 0.0962 0.0000 ( 19993 PWs)   bands (ev):

   -24.2209 -24.2204 -24.2012 -24.0912 -24.0870 -23.9237 -23.9212 -23.8611
   -23.8565 -23.7927 -12.2328  -4.7853  -4.2825  -3.5611

          k = 0.0000 0.1925 0.0000 ( 20061 PWs)   bands (ev):

   -24.2594 -24.2592 -24.1975 -24.0953 -24.0792 -23.8887 -23.8778 -23.8700
   -23.8525 -23.7896 -12.0562  -5.9364  -4.1005  -3.8608

          k = 0.0000 0.2887 0.0000 ( 20055 PWs)   bands (ev):

   -24.3016 -24.3008 -24.1923 -24.1005 -24.0674 -23.8834 -23.8590 -23.8472
   -23.8296 -23.7779 -11.7668  -7.0189  -4.1952  -3.8056

          k = 0.0000 0.3849 0.0000 ( 20131 PWs)   bands (ev):

   -24.3371 -24.3352 -24.1870 -24.1056 -24.0535 -23.8987 -23.8462 -23.8422
   -23.7886 -23.7562 -11.3795  -7.9890  -4.4757  -3.4173

          k = 0.0000 0.4811 0.0000 ( 20129 PWs)   bands (ev):

   -24.3602 -24.3574 -24.1831 -24.1092 -24.0414 -23.9119 -23.8434 -23.8386
   -23.7615 -23.7367 -10.9490  -8.7755  -4.6577  -2.9947

          k = 0.0000-0.5774 0.0000 ( 20096 PWs)   bands (ev):

   -24.3682 -24.3650 -24.1816 -24.1105 -24.0363 -23.9174 -23.8431 -23.8373
   -23.7520 -23.7293 -10.7039  -9.1403  -4.7203  -2.7595

          k = 0.0833 0.1443 0.0000 ( 20045 PWs)   bands (ev):

   -24.2584 -24.2346 -24.2017 -24.0942 -24.0816 -23.8987 -23.8905 -23.8673
   -23.8536 -23.7908 -12.1149  -5.6228  -4.1607  -3.8182

          k = 0.0833 0.2406 0.0000 ( 20083 PWs)   bands (ev):

   -24.3054 -24.2632 -24.1991 -24.0992 -24.0711 -23.8790 -23.8662 -23.8500
   -23.8486 -23.7813 -11.8814  -6.6223  -4.2053  -3.9217

          k = 0.0833 0.3368 0.0000 ( 20094 PWs)   bands (ev):

   -24.3485 -24.2935 -24.1943 -24.1048 -24.0572 -23.8943 -23.8464 -23.8431
   -23.8148 -23.7568 -11.5403  -7.5937  -4.5640  -3.5773

          k = 0.0833 0.4330 0.0000 ( 20111 PWs)   bands (ev):

   -24.3804 -24.3169 -24.1896 -24.1095 -24.0427 -23.9101 -23.8414 -23.8385
   -23.7877 -23.7286 -11.1183  -8.4557  -4.8255  -3.1588

          k = 0.0833 0.5292 0.0000 ( 20109 PWs)   bands (ev):

   -24.3972 -24.3295 -24.1868 -24.1122 -24.0325 -23.9210 -23.8411 -23.8359
   -23.7728 -23.7117 -10.7266  -9.0725  -4.9615  -2.7791

          k = 0.1667 0.2887 0.0000 ( 20089 PWs)   bands (ev):

   -24.3528 -24.2721 -24.2023 -24.1051 -24.0576 -23.8936 -23.8429 -23.8406
   -23.8331 -23.7549 -11.5946  -7.4227  -4.6944  -3.6314

          k = 0.1667 0.3849 0.0000 ( 20093 PWs)   bands (ev):

   -24.3919 -24.2837 -24.2024 -24.1110 -24.0409 -23.9115 -23.8372 -23.8333
   -23.8149 -23.7201 -11.2085  -8.2248  -5.1041  -3.2462

          k = 0.1667 0.4811 0.0000 ( 20107 PWs)   bands (ev):

   -24.4172 -24.2931 -24.2010 -24.1152 -24.0248 -23.9284 -23.8348 -23.8332
   -23.7989 -23.6941 -10.7686  -8.9326  -5.3615  -2.8155

          k = 0.1667 0.5774 0.0000 ( 20103 PWs)   bands (ev):

   -24.4259 -24.2966 -24.2002 -24.1167 -24.0172 -23.9363 -23.8358 -23.8318
   -23.7933 -23.6848 -10.5008  -9.2927  -5.4483  -2.5586

          k = 0.2500 0.4330 0.0000 ( 20133 PWs)   bands (ev):

   -24.4241 -24.2739 -24.2121 -24.1166 -24.0207 -23.9323 -23.8320 -23.8268
   -23.8145 -23.6878 -10.7882  -8.8593  -5.5390  -2.8325

          k = 0.2500 0.5292 0.0000 ( 20109 PWs)   bands (ev):

   -24.4412 -24.2671 -24.2189 -24.1198 -24.0020 -23.9515 -23.8290 -23.8277
   -23.8105 -23.6697 -10.3497  -9.4103  -5.7695  -2.4084

          k = 0.3333 0.5774 0.0000 ( 20085 PWs)   bands (ev):

   -24.4495 -24.2416 -24.2416 -24.1215 -23.9767 -23.9767 -23.8273 -23.8199
   -23.8199 -23.6610  -9.8878  -9.8878  -5.9177  -1.9655

     highest occupied level (ev):    -1.9655

!    total energy              =    -326.39024643 Ry
     estimated scf accuracy    <       0.00000095 Ry

     The total energy is the sum of the following terms:
     one-electron contribution =    -882.70066342 Ry
     hartree contribution      =     448.39742409 Ry
     xc contribution           =     -95.06531083 Ry
     ewald contribution        =     202.97830373 Ry

     convergence has been achieved in   8 iterations

     Writing output data file ../tmp/stanene.save/

     init_run     :      1.80s CPU      1.98s WALL (       1 calls)
     electrons    :     33.59s CPU     35.23s WALL (       1 calls)

     Called by init_run:
     wfcinit      :      1.36s CPU      1.47s WALL (       1 calls)
     potinit      :      0.12s CPU      0.14s WALL (       1 calls)
     hinit0       :      0.16s CPU      0.17s WALL (       1 calls)

     Called by electrons:
     c_bands      :     27.96s CPU     28.73s WALL (       8 calls)
     sum_band     :      4.42s CPU      5.12s WALL (       8 calls)
     v_of_rho     :      0.41s CPU      0.44s WALL (       9 calls)
     newd         :      0.85s CPU      1.05s WALL (       9 calls)
     mix_rho      :      0.07s CPU      0.07s WALL (       8 calls)

     Called by c_bands:
     init_us_2    :      0.33s CPU      0.34s WALL (     323 calls)
     cegterg      :     26.78s CPU     27.53s WALL (     152 calls)

     Called by *egterg:
     cdiaghg      :      0.30s CPU      0.30s WALL (     520 calls)
     h_psi        :     18.49s CPU     19.33s WALL (     539 calls)
     s_psi        :      1.27s CPU      1.28s WALL (     539 calls)
     g_psi        :      0.12s CPU      0.12s WALL (     368 calls)

     Called by h_psi:
     h_psi:calbec :      2.12s CPU      2.19s WALL (     539 calls)
     vloc_psi     :     14.97s CPU     15.71s WALL (     539 calls)
     add_vuspsi   :      1.33s CPU      1.36s WALL (     539 calls)

     General routines
     calbec       :      2.84s CPU      2.94s WALL (     691 calls)
     fft          :      0.32s CPU      0.34s WALL (      99 calls)
     ffts         :      0.02s CPU      0.02s WALL (       8 calls)
     fftw         :     16.03s CPU     16.75s WALL (   14796 calls)

     Parallel routines
     fft_scatt_xy :      1.52s CPU      1.62s WALL (   14903 calls)
     fft_scatt_yz :      8.90s CPU      9.23s WALL (   14903 calls)

     PWSCF        :     35.58s CPU     37.48s WALL


   This run was terminated on:  21: 3:23  20Jan2024            

=------------------------------------------------------------------------------=
   JOB DONE.
=------------------------------------------------------------------------------=
