
     Program PWSCF v.6.7MaX starts on 20Jan2024 at 20:59:26 

     This program is part of the open-source Quantum ESPRESSO suite
     for quantum simulation of materials; please cite
         "P. Giannozzi et al., J. Phys.:Condens. Matter 21 395502 (2009);
         "P. Giannozzi et al., J. Phys.:Condens. Matter 29 465901 (2017);
          URL http://www.quantum-espresso.org", 
     in publications or presentations arising from this work. More details at
     http://www.quantum-espresso.org/quote

     Parallel version (MPI), running on     6 processors

     MPI processes distributed on     1 nodes
     R & G space division:  proc/nbgrp/npool/nimage =       6
     Waiting for input...
     Reading input from standard input

     Current dimensions of program PWSCF are:
     Max number of different atomic species (ntypx) = 10
     Max number of k-points (npk) =  40000
     Max angular momentum in pseudopotentials (lmaxx) =  3

     Subspace diagonalization in iterative solution of the eigenvalue problem:
     one sub-group per band group will be used
     scalapack distributed-memory algorithm (size of sub-group:  2*  2 procs)


     Parallelization info
     --------------------
     sticks:   dense  smooth     PW     G-vecs:    dense   smooth      PW
     Min         214     214     60                26776    26776    3950
     Max         215     215     61                26799    26799    3963
     Sum        1285    1285    361               160699   160699   23727



     bravais-lattice index     =            4
     lattice parameter (alat)  =       8.8439  a.u.
     unit-cell volume          =    2560.0529 (a.u.)^3
     number of atoms/cell      =            2
     number of atomic types    =            1
     number of electrons       =        28.00
     number of Kohn-Sham states=           14
     kinetic-energy cutoff     =      60.0000  Ry
     charge density cutoff     =     240.0000  Ry
     scf convergence threshold =      1.0E-06
     mixing beta               =       0.7000
     number of iterations used =            8  plain     mixing
     Exchange-correlation= SLA  PW   PBE  PBE
                           (   1   4   3   4   0   0   0)

     celldm(1)=   8.843918  celldm(2)=   0.000000  celldm(3)=   4.273504
     celldm(4)=   0.000000  celldm(5)=   0.000000  celldm(6)=   0.000000

     crystal axes: (cart. coord. in units of alat)
               a(1) = (   1.000000   0.000000   0.000000 )  
               a(2) = (  -0.500000   0.866025   0.000000 )  
               a(3) = (   0.000000   0.000000   4.273504 )  

     reciprocal axes: (cart. coord. in units 2 pi/alat)
               b(1) = (  1.000000  0.577350 -0.000000 )  
               b(2) = (  0.000000  1.154701  0.000000 )  
               b(3) = (  0.000000 -0.000000  0.234000 )  


     PseudoPot. # 1 for Sn read from file:
     ../pseudo/Sn_pbe_v1.uspp.F.UPF
     MD5 check sum: 4cf58ce39ec5d5d420df3dd08604eb00
     Pseudo is Ultrasoft + core correction, Zval = 14.0
     Generated by new atomic code, or converted to UPF format
     Using radial grid of  891 points,  6 beta functions with: 
                l(1) =   0
                l(2) =   0
                l(3) =   1
                l(4) =   1
                l(5) =   2
                l(6) =   2
     Q(r) pseudized with  6 coefficients,  rinner =    1.200   1.200   1.200
                                                       1.200   1.200

     atomic species   valence    mass     pseudopotential
        Sn            14.00   118.71000     Sn( 1.00)

     24 Sym. Ops., with inversion, found



   Cartesian axes

     site n.     atom                  positions (alat units)
         1           Sn  tau(   1) = (   0.0000000   0.5773503   2.1367521  )
         2           Sn  tau(   2) = (   0.5000000   0.2886751   2.1367521  )

     number of k points=     5
                       cart. coord. in units 2pi/alat
        k(    1) = (   0.0000000   0.0000000   0.0000000), wk =   0.0800000
        k(    2) = (   0.0000000   0.2309401   0.0000000), wk =   0.4800000
        k(    3) = (   0.0000000   0.4618802   0.0000000), wk =   0.4800000
        k(    4) = (   0.2000000   0.3464102   0.0000000), wk =   0.4800000
        k(    5) = (   0.2000000   0.5773503   0.0000000), wk =   0.4800000

     Dense  grid:   160699 G-vectors     FFT dimensions: (  45,  45, 192)

     Estimated max dynamical RAM per process >      99.80 MB

     Estimated total dynamical RAM >     598.81 MB

     Initial potential from superposition of free atoms

     starting charge   25.99991, renormalised to   28.00000

     negative rho (up, down):  5.017E-03 0.000E+00
     Starting wfcs are   18 randomized atomic wfcs

     total cpu time spent up to now is        1.2 secs

     Self-consistent Calculation

     iteration #  1     ecut=    60.00 Ry     beta= 0.70
     Davidson diagonalization with overlap
     ethr =  1.00E-02,  avg # of iterations =  2.0

     negative rho (up, down):  3.316E-03 0.000E+00

     total cpu time spent up to now is        2.5 secs

     total energy              =    -325.48872152 Ry
     estimated scf accuracy    <       2.41417905 Ry

     iteration #  2     ecut=    60.00 Ry     beta= 0.70
     Davidson diagonalization with overlap
     ethr =  8.62E-03,  avg # of iterations =  2.0

     negative rho (up, down):  3.605E-03 0.000E+00

     total cpu time spent up to now is        3.9 secs

     total energy              =    -326.34214195 Ry
     estimated scf accuracy    <       0.29468636 Ry

     iteration #  3     ecut=    60.00 Ry     beta= 0.70
     Davidson diagonalization with overlap
     ethr =  1.05E-03,  avg # of iterations =  2.0

     negative rho (up, down):  3.782E-03 0.000E+00

     total cpu time spent up to now is        5.5 secs

     total energy              =    -326.38160952 Ry
     estimated scf accuracy    <       0.00613289 Ry

     iteration #  4     ecut=    60.00 Ry     beta= 0.70
     Davidson diagonalization with overlap
     ethr =  2.19E-05,  avg # of iterations =  2.8

     negative rho (up, down):  3.705E-03 0.000E+00

     total cpu time spent up to now is        7.2 secs

     total energy              =    -326.38400005 Ry
     estimated scf accuracy    <       0.00108370 Ry

     iteration #  5     ecut=    60.00 Ry     beta= 0.70
     Davidson diagonalization with overlap
     ethr =  3.87E-06,  avg # of iterations =  2.6

     negative rho (up, down):  3.681E-03 0.000E+00

     total cpu time spent up to now is        8.6 secs

     total energy              =    -326.38427738 Ry
     estimated scf accuracy    <       0.00000770 Ry

     iteration #  6     ecut=    60.00 Ry     beta= 0.70
     Davidson diagonalization with overlap
     ethr =  2.75E-08,  avg # of iterations =  5.8

     negative rho (up, down):  3.684E-03 0.000E+00

     total cpu time spent up to now is        9.9 secs

     total energy              =    -326.38623511 Ry
     estimated scf accuracy    <       0.00015512 Ry

     iteration #  7     ecut=    60.00 Ry     beta= 0.70
     Davidson diagonalization with overlap
     ethr =  2.75E-08,  avg # of iterations =  1.0

     negative rho (up, down):  3.684E-03 0.000E+00

     total cpu time spent up to now is       10.9 secs

     total energy              =    -326.38622251 Ry
     estimated scf accuracy    <       0.00017096 Ry

     iteration #  8     ecut=    60.00 Ry     beta= 0.70
     Davidson diagonalization with overlap
     ethr =  2.75E-08,  avg # of iterations =  1.0

     negative rho (up, down):  3.681E-03 0.000E+00

     total cpu time spent up to now is       12.1 secs

     total energy              =    -326.38619204 Ry
     estimated scf accuracy    <       0.00012643 Ry

     iteration #  9     ecut=    60.00 Ry     beta= 0.70
     Davidson diagonalization with overlap
     ethr =  2.75E-08,  avg # of iterations =  3.2

     negative rho (up, down):  3.680E-03 0.000E+00

     total cpu time spent up to now is       13.6 secs

     total energy              =    -326.38618693 Ry
     estimated scf accuracy    <       0.00002355 Ry

     iteration # 10     ecut=    60.00 Ry     beta= 0.70
     Davidson diagonalization with overlap
     ethr =  2.75E-08,  avg # of iterations =  2.8

     negative rho (up, down):  3.681E-03 0.000E+00

     total cpu time spent up to now is       15.0 secs

     End of self-consistent calculation

          k = 0.0000 0.0000 0.0000 ( 20001 PWs)   bands (ev):

   -24.1894 -24.1894 -24.1791 -24.0683 -24.0683 -23.9259 -23.9259 -23.8363
   -23.8363 -23.7688 -12.2877  -4.3371  -3.7487  -3.4320

          k = 0.0000 0.2309 0.0000 ( 20053 PWs)   bands (ev):

   -24.2622 -24.2608 -24.1746 -24.0759 -24.0534 -23.8584 -23.8532 -23.8438
   -23.8287 -23.7636 -11.9491  -6.3756  -3.9959  -3.9885

          k = 0.0000 0.4619 0.0000 ( 20133 PWs)   bands (ev):

   -24.3414 -24.3400 -24.1630 -24.0872 -24.0220 -23.8880 -23.8214 -23.8174
   -23.7510 -23.7220 -11.0278  -8.6359  -4.6303  -3.0682

          k = 0.2000 0.3464 0.0000 ( 20095 PWs)   bands (ev):

   -24.3717 -24.2623 -24.1843 -24.0887 -24.0227 -23.8863 -23.8164 -23.8083
   -23.8071 -23.7099 -11.2958  -8.0403  -5.0620  -3.3297

          k = 0.2000 0.5774 0.0000 ( 20119 PWs)   bands (ev):

   -24.4202 -24.2677 -24.1883 -24.0969 -23.9885 -23.9218 -23.8111 -23.8085
   -23.7822 -23.6617 -10.4067  -9.3672  -5.6131  -2.4630

     highest occupied level (ev):    -2.4630

!    total energy              =    -326.38618967 Ry
     estimated scf accuracy    <       0.00000100 Ry

     The total energy is the sum of the following terms:
     one-electron contribution =    -882.72229571 Ry
     hartree contribution      =     448.42656447 Ry
     xc contribution           =     -95.06876217 Ry
     ewald contribution        =     202.97830373 Ry

     convergence has been achieved in  10 iterations

     Writing output data file ../tmp/stanene.save/

     init_run     :      1.00s CPU      1.04s WALL (       1 calls)
     electrons    :     12.80s CPU     13.82s WALL (       1 calls)

     Called by init_run:
     wfcinit      :      0.45s CPU      0.46s WALL (       1 calls)
     potinit      :      0.18s CPU      0.20s WALL (       1 calls)
     hinit0       :      0.17s CPU      0.18s WALL (       1 calls)

     Called by electrons:
     c_bands      :      9.04s CPU      9.32s WALL (      10 calls)
     sum_band     :      2.24s CPU      2.72s WALL (      10 calls)
     v_of_rho     :      0.54s CPU      0.56s WALL (      11 calls)
     newd         :      1.04s CPU      1.30s WALL (      11 calls)
     mix_rho      :      0.11s CPU      0.11s WALL (      10 calls)

     Called by c_bands:
     init_us_2    :      0.12s CPU      0.12s WALL (     105 calls)
     cegterg      :      8.64s CPU      8.93s WALL (      50 calls)

     Called by *egterg:
     cdiaghg      :      0.10s CPU      0.10s WALL (     176 calls)
     h_psi        :      6.05s CPU      6.34s WALL (     181 calls)
     s_psi        :      0.43s CPU      0.43s WALL (     181 calls)
     g_psi        :      0.03s CPU      0.03s WALL (     126 calls)

     Called by h_psi:
     h_psi:calbec :      0.68s CPU      0.70s WALL (     181 calls)
     vloc_psi     :      4.88s CPU      5.14s WALL (     181 calls)
     add_vuspsi   :      0.48s CPU      0.49s WALL (     181 calls)

     General routines
     calbec       :      0.91s CPU      0.93s WALL (     231 calls)
     fft          :      0.41s CPU      0.43s WALL (     121 calls)
     ffts         :      0.02s CPU      0.02s WALL (      10 calls)
     fftw         :      5.22s CPU      5.48s WALL (    4808 calls)

     Parallel routines
     fft_scatt_xy :      0.50s CPU      0.53s WALL (    4939 calls)
     fft_scatt_yz :      3.09s CPU      3.25s WALL (    4939 calls)

     PWSCF        :     13.92s CPU     15.02s WALL


   This run was terminated on:  20:59:41  20Jan2024            

=------------------------------------------------------------------------------=
   JOB DONE.
=------------------------------------------------------------------------------=
