
     Program PWSCF v.6.7MaX starts on 20Jan2024 at 21:11:23 

     This program is part of the open-source Quantum ESPRESSO suite
     for quantum simulation of materials; please cite
         "P. Giannozzi et al., J. Phys.:Condens. Matter 21 395502 (2009);
         "P. Giannozzi et al., J. Phys.:Condens. Matter 29 465901 (2017);
          URL http://www.quantum-espresso.org", 
     in publications or presentations arising from this work. More details at
     http://www.quantum-espresso.org/quote

     Parallel version (MPI), running on     6 processors

     MPI processes distributed on     1 nodes
     R & G space division:  proc/nbgrp/npool/nimage =       6
     Waiting for input...
     Reading input from standard input

     Current dimensions of program PWSCF are:
     Max number of different atomic species (ntypx) = 10
     Max number of k-points (npk) =  40000
     Max angular momentum in pseudopotentials (lmaxx) =  3

     Subspace diagonalization in iterative solution of the eigenvalue problem:
     one sub-group per band group will be used
     scalapack distributed-memory algorithm (size of sub-group:  2*  2 procs)


     Parallelization info
     --------------------
     sticks:   dense  smooth     PW     G-vecs:    dense   smooth      PW
     Min         214     214     61                26776    26776    4007
     Max         215     215     62                26799    26799    4017
     Sum        1285    1285    367               160699   160699   24069



     bravais-lattice index     =            4
     lattice parameter (alat)  =       8.8439  a.u.
     unit-cell volume          =    2560.0529 (a.u.)^3
     number of atoms/cell      =            2
     number of atomic types    =            1
     number of electrons       =        28.00
     number of Kohn-Sham states=           14
     kinetic-energy cutoff     =      60.0000  Ry
     charge density cutoff     =     240.0000  Ry
     scf convergence threshold =      1.0E-06
     mixing beta               =       0.7000
     number of iterations used =            8  plain     mixing
     Exchange-correlation= SLA  PW   PBE  PBE
                           (   1   4   3   4   0   0   0)

     celldm(1)=   8.843918  celldm(2)=   0.000000  celldm(3)=   4.273504
     celldm(4)=   0.000000  celldm(5)=   0.000000  celldm(6)=   0.000000

     crystal axes: (cart. coord. in units of alat)
               a(1) = (   1.000000   0.000000   0.000000 )  
               a(2) = (  -0.500000   0.866025   0.000000 )  
               a(3) = (   0.000000   0.000000   4.273504 )  

     reciprocal axes: (cart. coord. in units 2 pi/alat)
               b(1) = (  1.000000  0.577350 -0.000000 )  
               b(2) = (  0.000000  1.154701  0.000000 )  
               b(3) = (  0.000000 -0.000000  0.234000 )  


     PseudoPot. # 1 for Sn read from file:
     ../pseudo/Sn_pbe_v1.uspp.F.UPF
     MD5 check sum: 4cf58ce39ec5d5d420df3dd08604eb00
     Pseudo is Ultrasoft + core correction, Zval = 14.0
     Generated by new atomic code, or converted to UPF format
     Using radial grid of  891 points,  6 beta functions with: 
                l(1) =   0
                l(2) =   0
                l(3) =   1
                l(4) =   1
                l(5) =   2
                l(6) =   2
     Q(r) pseudized with  6 coefficients,  rinner =    1.200   1.200   1.200
                                                       1.200   1.200

     atomic species   valence    mass     pseudopotential
        Sn            14.00   118.71000     Sn( 1.00)

     24 Sym. Ops., with inversion, found



   Cartesian axes

     site n.     atom                  positions (alat units)
         1           Sn  tau(   1) = (   0.0000000   0.5773503   2.1367521  )
         2           Sn  tau(   2) = (   0.5000000   0.2886751   2.1367521  )

     number of k points=    48
                       cart. coord. in units 2pi/alat
        k(    1) = (   0.0000000   0.0000000   0.0000000), wk =   0.0045351
        k(    2) = (   0.0000000   0.0549857   0.0000000), wk =   0.0272109
        k(    3) = (   0.0000000   0.1099715   0.0000000), wk =   0.0272109
        k(    4) = (   0.0000000   0.1649572   0.0000000), wk =   0.0272109
        k(    5) = (   0.0000000   0.2199430   0.0000000), wk =   0.0272109
        k(    6) = (   0.0000000   0.2749287   0.0000000), wk =   0.0272109
        k(    7) = (   0.0000000   0.3299144   0.0000000), wk =   0.0272109
        k(    8) = (   0.0000000   0.3849002   0.0000000), wk =   0.0272109
        k(    9) = (   0.0000000   0.4398859   0.0000000), wk =   0.0272109
        k(   10) = (   0.0000000   0.4948717   0.0000000), wk =   0.0272109
        k(   11) = (   0.0000000   0.5498574   0.0000000), wk =   0.0272109
        k(   12) = (   0.0476190   0.0824786   0.0000000), wk =   0.0272109
        k(   13) = (   0.0476190   0.1374643   0.0000000), wk =   0.0544218
        k(   14) = (   0.0476190   0.1924501   0.0000000), wk =   0.0544218
        k(   15) = (   0.0476190   0.2474358   0.0000000), wk =   0.0544218
        k(   16) = (   0.0476190   0.3024216   0.0000000), wk =   0.0544218
        k(   17) = (   0.0476190   0.3574073   0.0000000), wk =   0.0544218
        k(   18) = (   0.0476190   0.4123930   0.0000000), wk =   0.0544218
        k(   19) = (   0.0476190   0.4673788   0.0000000), wk =   0.0544218
        k(   20) = (   0.0476190   0.5223645   0.0000000), wk =   0.0544218
        k(   21) = (   0.0476190   0.5773503   0.0000000), wk =   0.0272109
        k(   22) = (   0.0952381   0.1649572   0.0000000), wk =   0.0272109
        k(   23) = (   0.0952381   0.2199430   0.0000000), wk =   0.0544218
        k(   24) = (   0.0952381   0.2749287   0.0000000), wk =   0.0544218
        k(   25) = (   0.0952381   0.3299144   0.0000000), wk =   0.0544218
        k(   26) = (   0.0952381   0.3849002   0.0000000), wk =   0.0544218
        k(   27) = (   0.0952381   0.4398859   0.0000000), wk =   0.0544218
        k(   28) = (   0.0952381   0.4948717   0.0000000), wk =   0.0544218
        k(   29) = (   0.0952381   0.5498574   0.0000000), wk =   0.0544218
        k(   30) = (   0.1428571   0.2474358   0.0000000), wk =   0.0272109
        k(   31) = (   0.1428571   0.3024216   0.0000000), wk =   0.0544218
        k(   32) = (   0.1428571   0.3574073   0.0000000), wk =   0.0544218
        k(   33) = (   0.1428571   0.4123930   0.0000000), wk =   0.0544218
        k(   34) = (   0.1428571   0.4673788   0.0000000), wk =   0.0544218
        k(   35) = (   0.1428571   0.5223645   0.0000000), wk =   0.0544218
        k(   36) = (   0.1428571   0.5773503   0.0000000), wk =   0.0272109
        k(   37) = (   0.1904762   0.3299144   0.0000000), wk =   0.0272109
        k(   38) = (   0.1904762   0.3849002   0.0000000), wk =   0.0544218
        k(   39) = (   0.1904762   0.4398859   0.0000000), wk =   0.0544218
        k(   40) = (   0.1904762   0.4948717   0.0000000), wk =   0.0544218
        k(   41) = (   0.1904762   0.5498574   0.0000000), wk =   0.0544218
        k(   42) = (   0.2380952   0.4123930   0.0000000), wk =   0.0272109
        k(   43) = (   0.2380952   0.4673788   0.0000000), wk =   0.0544218
        k(   44) = (   0.2380952   0.5223645   0.0000000), wk =   0.0544218
        k(   45) = (   0.2380952   0.5773503   0.0000000), wk =   0.0272109
        k(   46) = (   0.2857143   0.4948717   0.0000000), wk =   0.0272109
        k(   47) = (   0.2857143   0.5498574   0.0000000), wk =   0.0544218
        k(   48) = (   0.3333333   0.5773503   0.0000000), wk =   0.0090703

     Dense  grid:   160699 G-vectors     FFT dimensions: (  45,  45, 192)

     Estimated max dynamical RAM per process >     130.56 MB

     Estimated total dynamical RAM >     783.33 MB

     Initial potential from superposition of free atoms

     starting charge   25.99991, renormalised to   28.00000

     negative rho (up, down):  5.017E-03 0.000E+00
     Starting wfcs are   18 randomized atomic wfcs

     total cpu time spent up to now is        4.0 secs

     Self-consistent Calculation

     iteration #  1     ecut=    60.00 Ry     beta= 0.70
     Davidson diagonalization with overlap
     ethr =  1.00E-02,  avg # of iterations =  2.0

     negative rho (up, down):  3.313E-03 0.000E+00

     total cpu time spent up to now is       14.3 secs

     total energy              =    -325.49410738 Ry
     estimated scf accuracy    <       2.41362546 Ry

     iteration #  2     ecut=    60.00 Ry     beta= 0.70
     Davidson diagonalization with overlap
     ethr =  8.62E-03,  avg # of iterations =  2.0

     negative rho (up, down):  3.602E-03 0.000E+00

     total cpu time spent up to now is       24.3 secs

     total energy              =    -326.34784437 Ry
     estimated scf accuracy    <       0.29491773 Ry

     iteration #  3     ecut=    60.00 Ry     beta= 0.70
     Davidson diagonalization with overlap
     ethr =  1.05E-03,  avg # of iterations =  2.0

     negative rho (up, down):  3.778E-03 0.000E+00

     total cpu time spent up to now is       35.4 secs

     total energy              =    -326.38753704 Ry
     estimated scf accuracy    <       0.00612241 Ry

     iteration #  4     ecut=    60.00 Ry     beta= 0.70
     Davidson diagonalization with overlap
     ethr =  2.19E-05,  avg # of iterations =  3.0

     negative rho (up, down):  3.698E-03 0.000E+00

     total cpu time spent up to now is       45.9 secs

     total energy              =    -326.39013294 Ry
     estimated scf accuracy    <       0.00102259 Ry

     iteration #  5     ecut=    60.00 Ry     beta= 0.70
     Davidson diagonalization with overlap
     ethr =  3.65E-06,  avg # of iterations =  2.3

     negative rho (up, down):  3.680E-03 0.000E+00

     total cpu time spent up to now is       56.3 secs

     total energy              =    -326.39040289 Ry
     estimated scf accuracy    <       0.00001457 Ry

     iteration #  6     ecut=    60.00 Ry     beta= 0.70
     Davidson diagonalization with overlap
     ethr =  5.20E-08,  avg # of iterations =  4.7

     negative rho (up, down):  3.681E-03 0.000E+00

     total cpu time spent up to now is       67.6 secs

     End of self-consistent calculation

          k = 0.0000 0.0000 0.0000 ( 20001 PWs)   bands (ev):

   -24.2106 -24.2106 -24.2096 -24.0970 -24.0970 -23.9472 -23.9472 -23.8654
   -23.8654 -23.8007 -12.2945  -4.3455  -3.7604  -3.4357

          k = 0.0000 0.0550 0.0000 ( 20011 PWs)   bands (ev):

   -24.2166 -24.2163 -24.2094 -24.0975 -24.0961 -23.9415 -23.9407 -23.8664
   -23.8649 -23.8005 -12.2752  -4.3255  -4.2898  -3.4794

          k = 0.0000 0.1100 0.0000 ( 19985 PWs)   bands (ev):

   -24.2325 -24.2321 -24.2081 -24.0990 -24.0935 -23.9263 -23.9230 -23.8695
   -23.8635 -23.8000 -12.2172  -4.9547  -4.2654  -3.5991

          k = 0.0000 0.1650 0.0000 ( 20063 PWs)   bands (ev):

   -24.2543 -24.2541 -24.2060 -24.1012 -24.0892 -23.9062 -23.8984 -23.8743
   -23.8612 -23.7985 -12.1209  -5.6151  -4.1662  -3.7685

          k = 0.0000 0.2199 0.0000 ( 20049 PWs)   bands (ev):

   -24.2785 -24.2784 -24.2034 -24.1040 -24.0835 -23.8859 -23.8809 -23.8709
   -23.8585 -23.7949 -11.9871  -6.2573  -4.0289  -3.9599

          k = 0.0000 0.2749 0.0000 ( 20075 PWs)   bands (ev):

   -24.3027 -24.3021 -24.2004 -24.1071 -24.0765 -23.8887 -23.8694 -23.8554
   -23.8433 -23.7877 -11.8172  -6.8727  -4.1513  -3.8558

          k = 0.0000 0.3299 0.0000 ( 20087 PWs)   bands (ev):

   -24.3250 -24.3237 -24.1972 -24.1101 -24.0688 -23.8973 -23.8589 -23.8524
   -23.8178 -23.7766 -11.6137  -7.4537  -4.3275  -3.6504

          k = 0.0000 0.3849 0.0000 ( 20131 PWs)   bands (ev):

   -24.3440 -24.3421 -24.1943 -24.1129 -24.0608 -23.9061 -23.8536 -23.8496
   -23.7957 -23.7635 -11.3820  -7.9916  -4.4778  -3.4190

          k = 0.0000 0.4399 0.0000 ( 20149 PWs)   bands (ev):

   -24.3590 -24.3564 -24.1918 -24.1152 -24.0534 -23.9142 -23.8514 -23.8473
   -23.7782 -23.7513 -11.1336  -8.4719  -4.5955  -3.1740

          k = 0.0000 0.4949 0.0000 ( 20141 PWs)   bands (ev):

   -24.3692 -24.3662 -24.1899 -24.1168 -24.0474 -23.9207 -23.8507 -23.8457
   -23.7661 -23.7421 -10.8956  -8.8656  -4.6762  -2.9424

          k = 0.0000 0.5499 0.0000 ( 20116 PWs)   bands (ev):

   -24.3745 -24.3712 -24.1890 -24.1177 -24.0441 -23.9243 -23.8506 -23.8449
   -23.7599 -23.7372 -10.7308  -9.1085  -4.7172  -2.7845

          k = 0.0476 0.0825 0.0000 ( 19989 PWs)   bands (ev):

   -24.2309 -24.2227 -24.2094 -24.0985 -24.0943 -23.9312 -23.9285 -23.8685
   -23.8639 -23.8002 -12.2365  -4.7745  -4.2854  -3.5672

          k = 0.0476 0.1375 0.0000 ( 20036 PWs)   bands (ev):

   -24.2529 -24.2375 -24.2084 -24.1004 -24.0908 -23.9138 -23.9075 -23.8725
   -23.8620 -23.7992 -12.1594  -5.3782  -4.2057  -3.7252

          k = 0.0476 0.1925 0.0000 ( 20055 PWs)   bands (ev):

   -24.2785 -24.2573 -24.2062 -24.1030 -24.0857 -23.8936 -23.8822 -23.8783
   -23.8595 -23.7964 -12.0443  -5.9994  -4.0874  -3.9202

          k = 0.0476 0.2474 0.0000 ( 20074 PWs)   bands (ev):

   -24.3046 -24.2786 -24.2035 -24.1060 -24.0792 -23.8856 -23.8751 -23.8565
   -23.8561 -23.7904 -11.8923  -6.6101  -4.1243  -3.9321

          k = 0.0476 0.3024 0.0000 ( 20075 PWs)   bands (ev):

   -24.3293 -24.2992 -24.2004 -24.1092 -24.0717 -23.8940 -23.8618 -23.8534
   -23.8315 -23.7797 -11.7052  -7.1969  -4.3184  -3.7424

          k = 0.0476 0.3574 0.0000 ( 20090 PWs)   bands (ev):

   -24.3510 -24.3176 -24.1973 -24.1122 -24.0636 -23.9029 -23.8544 -23.8504
   -23.8099 -23.7653 -11.4867  -7.7493  -4.4894  -3.5231

          k = 0.0476 0.4124 0.0000 ( 20107 PWs)   bands (ev):

   -24.3688 -24.3328 -24.1946 -24.1148 -24.0556 -23.9117 -23.8512 -23.8478
   -23.7920 -23.7506 -11.2444  -8.2552  -4.6290  -3.2827

          k = 0.0476 0.4674 0.0000 ( 20122 PWs)   bands (ev):

   -24.3820 -24.3440 -24.1924 -24.1168 -24.0486 -23.9193 -23.8502 -23.8458
   -23.7787 -23.7383 -10.9957  -8.6942  -4.7320  -3.0390

          k = 0.0476 0.5224 0.0000 ( 20123 PWs)   bands (ev):

   -24.3901 -24.3510 -24.1909 -24.1181 -24.0437 -23.9246 -23.8499 -23.8446
   -23.7705 -23.7303 -10.7823  -9.0226  -4.7950  -2.8330

          k = 0.0476 0.5774 0.0000 ( 20134 PWs)   bands (ev):

   -24.3928 -24.3533 -24.1904 -24.1185 -24.0418 -23.9265 -23.8499 -23.8441
   -23.7677 -23.7276 -10.6899  -9.1535  -4.8162  -2.7449

          k = 0.0952 0.1650 0.0000 ( 20049 PWs)   bands (ev):

   -24.2785 -24.2481 -24.2089 -24.1027 -24.0864 -23.8966 -23.8863 -23.8775
   -23.8597 -23.7968 -12.0634  -5.9011  -4.1070  -3.9278

          k = 0.0952 0.2199 0.0000 ( 20070 PWs)   bands (ev):

   -24.3058 -24.2630 -24.2078 -24.1057 -24.0803 -23.8843 -23.8781 -23.8640
   -23.8568 -23.7910 -11.9299  -6.4562  -4.1597  -3.9704

          k = 0.0952 0.2749 0.0000 ( 20089 PWs)   bands (ev):

   -24.3324 -24.2794 -24.2057 -24.1089 -24.0730 -23.8924 -23.8625 -23.8537
   -23.8439 -23.7798 -11.7604  -7.0130  -4.3884  -3.7981

          k = 0.0952 0.3299 0.0000 ( 20091 PWs)   bands (ev):

   -24.3565 -24.2954 -24.2031 -24.1122 -24.0647 -23.9015 -23.8531 -23.8505
   -23.8257 -23.7636 -11.5572  -7.5536  -4.5949  -3.5934

          k = 0.0952 0.3849 0.0000 ( 20089 PWs)   bands (ev):

   -24.3771 -24.3095 -24.2004 -24.1151 -24.0561 -23.9109 -23.8491 -23.8476
   -23.8095 -23.7461 -11.3254  -8.0636  -4.7684  -3.3622

          k = 0.0952 0.4399 0.0000 ( 20115 PWs)   bands (ev):

   -24.3932 -24.3207 -24.1980 -24.1176 -24.0479 -23.9197 -23.8480 -23.8452
   -23.7962 -23.7307 -11.0759  -8.5262  -4.9025  -3.1163

          k = 0.0952 0.4949 0.0000 ( 20108 PWs)   bands (ev):

   -24.4042 -24.3285 -24.1962 -24.1193 -24.0412 -23.9269 -23.8479 -23.8435
   -23.7869 -23.7195 -10.8348  -8.9114  -4.9937  -2.8819

          k = 0.0952 0.5499 0.0000 ( 20125 PWs)   bands (ev):

   -24.4098 -24.3325 -24.1953 -24.1202 -24.0373 -23.9310 -23.8480 -23.8426
   -23.7821 -23.7136 -10.6655  -9.1534  -5.0397  -2.7197

          k = 0.1429 0.2474 0.0000 ( 20103 PWs)   bands (ev):

   -24.3334 -24.2712 -24.2089 -24.1089 -24.0733 -23.8920 -23.8619 -23.8537
   -23.8493 -23.7796 -11.7788  -6.9445  -4.4277  -3.8167

          k = 0.1429 0.3024 0.0000 ( 20082 PWs)   bands (ev):

   -24.3593 -24.2811 -24.2086 -24.1124 -24.0649 -23.9010 -23.8503 -23.8492
   -23.8379 -23.7623 -11.5926  -7.4404  -4.6834  -3.6287

          k = 0.1429 0.3574 0.0000 ( 20081 PWs)   bands (ev):

   -24.3821 -24.2912 -24.2074 -24.1157 -24.0558 -23.9109 -23.8471 -23.8445
   -23.8248 -23.7427 -11.3747  -7.9265  -4.9057  -3.4106

          k = 0.1429 0.4124 0.0000 ( 20108 PWs)   bands (ev):

   -24.4008 -24.3002 -24.2057 -24.1186 -24.0464 -23.9209 -23.8443 -23.8437
   -23.8123 -23.7247 -11.1317  -8.3867  -5.0842  -3.1700

          k = 0.1429 0.4674 0.0000 ( 20109 PWs)   bands (ev):

   -24.4147 -24.3072 -24.2042 -24.1208 -24.0378 -23.9300 -23.8442 -23.8421
   -23.8027 -23.7105 -10.8791  -8.7988  -5.2139  -2.9229

          k = 0.1429 0.5224 0.0000 ( 20098 PWs)   bands (ev):

   -24.4232 -24.3117 -24.2031 -24.1223 -24.0315 -23.9366 -23.8448 -23.8408
   -23.7967 -23.7016 -10.6569  -9.1185  -5.2925  -2.7085

          k = 0.1429 0.5774 0.0000 ( 20103 PWs)   bands (ev):

   -24.4260 -24.3132 -24.2027 -24.1227 -24.0291 -23.9391 -23.8450 -23.8403
   -23.7946 -23.6985 -10.5573  -9.2508  -5.3188  -2.6136

          k = 0.1905 0.3299 0.0000 ( 20083 PWs)   bands (ev):

   -24.3839 -24.2837 -24.2109 -24.1160 -24.0555 -23.9110 -23.8469 -23.8365
   -23.8364 -23.7415 -11.3912  -7.8758  -4.9612  -3.4269

          k = 0.1905 0.3849 0.0000 ( 20104 PWs)   bands (ev):

   -24.4047 -24.2870 -24.2122 -24.1193 -24.0453 -23.9218 -23.8437 -23.8373
   -23.8251 -23.7215 -11.1602  -8.3056  -5.1968  -3.1975

          k = 0.1905 0.4399 0.0000 ( 20106 PWs)   bands (ev):

   -24.4211 -24.2902 -24.2127 -24.1220 -24.0350 -23.9326 -23.8411 -23.8389
   -23.8160 -23.7048 -10.9083  -8.7133  -5.3785  -2.9500

          k = 0.1905 0.4949 0.0000 ( 20123 PWs)   bands (ev):

   -24.4324 -24.2928 -24.2127 -24.1240 -24.0259 -23.9420 -23.8402 -23.8392
   -23.8096 -23.6929 -10.6575  -9.0714  -5.5011  -2.7064

          k = 0.1905 0.5499 0.0000 ( 20127 PWs)   bands (ev):

   -24.4381 -24.2942 -24.2126 -24.1250 -24.0203 -23.9478 -23.8410 -23.8382
   -23.8063 -23.6868 -10.4705  -9.3130  -5.5628  -2.5273

          k = 0.2381 0.4124 0.0000 ( 20107 PWs)   bands (ev):

   -24.4233 -24.2831 -24.2169 -24.1225 -24.0339 -23.9337 -23.8407 -23.8344
   -23.8232 -23.7029 -10.9185  -8.6811  -5.4391  -2.9594

          k = 0.2381 0.4674 0.0000 ( 20133 PWs)   bands (ev):

   -24.4371 -24.2800 -24.2207 -24.1250 -24.0225 -23.9454 -23.8383 -23.8350
   -23.8192 -23.6885 -10.6600  -9.0388  -5.6180  -2.7072

          k = 0.2381 0.5224 0.0000 ( 20111 PWs)   bands (ev):

   -24.4455 -24.2779 -24.2232 -24.1265 -24.0127 -23.9553 -23.8368 -23.8361
   -23.8162 -23.6795 -10.4153  -9.3445  -5.7271  -2.4713

          k = 0.2381 0.5774 0.0000 ( 20091 PWs)   bands (ev):

   -24.4484 -24.2772 -24.2240 -24.1271 -24.0085 -23.9596 -23.8366 -23.8363
   -23.8151 -23.6764 -10.2913  -9.4892  -5.7637  -2.3530

          k = 0.2857 0.4949 0.0000 ( 20109 PWs)   bands (ev):

   -24.4480 -24.2702 -24.2289 -24.1271 -24.0096 -23.9585 -23.8363 -23.8327
   -23.8213 -23.6770 -10.3966  -9.3536  -5.7851  -2.4520

          k = 0.2857 0.5499 0.0000 ( 20112 PWs)   bands (ev):

   -24.4536 -24.2631 -24.2353 -24.1282 -23.9986 -23.9695 -23.8353 -23.8319
   -23.8221 -23.6710 -10.1578  -9.6181  -5.8704  -2.2231

          k = 0.3333 0.5774 0.0000 ( 20085 PWs)   bands (ev):

   -24.4563 -24.2487 -24.2487 -24.1288 -23.9841 -23.9841 -23.8348 -23.8273
   -23.8273 -23.6682  -9.8904  -9.8904  -5.9194  -1.9673

     highest occupied level (ev):    -1.9673

!    total energy              =    -326.39051575 Ry
     estimated scf accuracy    <       0.00000099 Ry

     The total energy is the sum of the following terms:
     one-electron contribution =    -882.70821721 Ry
     hartree contribution      =     448.40608153 Ry
     xc contribution           =     -95.06668380 Ry
     ewald contribution        =     202.97830373 Ry

     convergence has been achieved in   6 iterations

     Writing output data file ../tmp/stanene.save/

     init_run     :      3.79s CPU      3.94s WALL (       1 calls)
     electrons    :     61.41s CPU     63.59s WALL (       1 calls)

     Called by init_run:
     wfcinit      :      3.38s CPU      3.48s WALL (       1 calls)
     potinit      :      0.10s CPU      0.11s WALL (       1 calls)
     hinit0       :      0.16s CPU      0.17s WALL (       1 calls)

     Called by electrons:
     c_bands      :     54.01s CPU     55.63s WALL (       6 calls)
     sum_band     :      6.51s CPU      6.92s WALL (       6 calls)
     v_of_rho     :      0.28s CPU      0.31s WALL (       7 calls)
     newd         :      0.68s CPU      0.80s WALL (       7 calls)
     mix_rho      :      0.05s CPU      0.05s WALL (       6 calls)

     Called by c_bands:
     init_us_2    :      0.59s CPU      0.60s WALL (     624 calls)
     cegterg      :     51.67s CPU     53.29s WALL (     288 calls)

     Called by *egterg:
     cdiaghg      :      0.56s CPU      0.56s WALL (    1060 calls)
     h_psi        :     35.67s CPU     37.31s WALL (    1108 calls)
     s_psi        :      2.58s CPU      2.61s WALL (    1108 calls)
     g_psi        :      0.24s CPU      0.24s WALL (     772 calls)

     Called by h_psi:
     h_psi:calbec :      4.36s CPU      4.54s WALL (    1108 calls)
     vloc_psi     :     28.53s CPU     29.92s WALL (    1108 calls)
     add_vuspsi   :      2.66s CPU      2.72s WALL (    1108 calls)

     General routines
     calbec       :      5.60s CPU      5.82s WALL (    1396 calls)
     fft          :      0.19s CPU      0.20s WALL (      77 calls)
     ffts         :      0.01s CPU      0.01s WALL (       6 calls)
     fftw         :     29.76s CPU     31.10s WALL (   30430 calls)

     Parallel routines
     fft_scatt_xy :      2.76s CPU      2.94s WALL (   30513 calls)
     fft_scatt_yz :     15.49s CPU     16.02s WALL (   30513 calls)

     PWSCF        :   1m 5.34s CPU   1m 7.85s WALL


   This run was terminated on:  21:12:31  20Jan2024            

=------------------------------------------------------------------------------=
   JOB DONE.
=------------------------------------------------------------------------------=
