
     Program PWSCF v.6.7MaX starts on 20Jan2024 at 21: 3:24 

     This program is part of the open-source Quantum ESPRESSO suite
     for quantum simulation of materials; please cite
         "P. Giannozzi et al., J. Phys.:Condens. Matter 21 395502 (2009);
         "P. Giannozzi et al., J. Phys.:Condens. Matter 29 465901 (2017);
          URL http://www.quantum-espresso.org", 
     in publications or presentations arising from this work. More details at
     http://www.quantum-espresso.org/quote

     Parallel version (MPI), running on     6 processors

     MPI processes distributed on     1 nodes
     R & G space division:  proc/nbgrp/npool/nimage =       6
     Waiting for input...
     Reading input from standard input

     Current dimensions of program PWSCF are:
     Max number of different atomic species (ntypx) = 10
     Max number of k-points (npk) =  40000
     Max angular momentum in pseudopotentials (lmaxx) =  3

     Subspace diagonalization in iterative solution of the eigenvalue problem:
     one sub-group per band group will be used
     scalapack distributed-memory algorithm (size of sub-group:  2*  2 procs)


     Parallelization info
     --------------------
     sticks:   dense  smooth     PW     G-vecs:    dense   smooth      PW
     Min         214     214     60                26776    26776    3962
     Max         215     215     61                26799    26799    3975
     Sum        1285    1285    361               160699   160699   23799



     bravais-lattice index     =            4
     lattice parameter (alat)  =       8.8439  a.u.
     unit-cell volume          =    2560.0529 (a.u.)^3
     number of atoms/cell      =            2
     number of atomic types    =            1
     number of electrons       =        28.00
     number of Kohn-Sham states=           14
     kinetic-energy cutoff     =      60.0000  Ry
     charge density cutoff     =     240.0000  Ry
     scf convergence threshold =      1.0E-06
     mixing beta               =       0.7000
     number of iterations used =            8  plain     mixing
     Exchange-correlation= SLA  PW   PBE  PBE
                           (   1   4   3   4   0   0   0)

     celldm(1)=   8.843918  celldm(2)=   0.000000  celldm(3)=   4.273504
     celldm(4)=   0.000000  celldm(5)=   0.000000  celldm(6)=   0.000000

     crystal axes: (cart. coord. in units of alat)
               a(1) = (   1.000000   0.000000   0.000000 )  
               a(2) = (  -0.500000   0.866025   0.000000 )  
               a(3) = (   0.000000   0.000000   4.273504 )  

     reciprocal axes: (cart. coord. in units 2 pi/alat)
               b(1) = (  1.000000  0.577350 -0.000000 )  
               b(2) = (  0.000000  1.154701  0.000000 )  
               b(3) = (  0.000000 -0.000000  0.234000 )  


     PseudoPot. # 1 for Sn read from file:
     ../pseudo/Sn_pbe_v1.uspp.F.UPF
     MD5 check sum: 4cf58ce39ec5d5d420df3dd08604eb00
     Pseudo is Ultrasoft + core correction, Zval = 14.0
     Generated by new atomic code, or converted to UPF format
     Using radial grid of  891 points,  6 beta functions with: 
                l(1) =   0
                l(2) =   0
                l(3) =   1
                l(4) =   1
                l(5) =   2
                l(6) =   2
     Q(r) pseudized with  6 coefficients,  rinner =    1.200   1.200   1.200
                                                       1.200   1.200

     atomic species   valence    mass     pseudopotential
        Sn            14.00   118.71000     Sn( 1.00)

     24 Sym. Ops., with inversion, found



   Cartesian axes

     site n.     atom                  positions (alat units)
         1           Sn  tau(   1) = (   0.0000000   0.5773503   2.1367521  )
         2           Sn  tau(   2) = (   0.5000000   0.2886751   2.1367521  )

     number of k points=    21
                       cart. coord. in units 2pi/alat
        k(    1) = (   0.0000000   0.0000000   0.0000000), wk =   0.0118343
        k(    2) = (   0.0000000   0.0888231   0.0000000), wk =   0.0710059
        k(    3) = (   0.0000000   0.1776462   0.0000000), wk =   0.0710059
        k(    4) = (   0.0000000   0.2664694   0.0000000), wk =   0.0710059
        k(    5) = (   0.0000000   0.3552925   0.0000000), wk =   0.0710059
        k(    6) = (   0.0000000   0.4441156   0.0000000), wk =   0.0710059
        k(    7) = (   0.0000000   0.5329387   0.0000000), wk =   0.0710059
        k(    8) = (   0.0769231   0.1332347   0.0000000), wk =   0.0710059
        k(    9) = (   0.0769231   0.2220578   0.0000000), wk =   0.1420118
        k(   10) = (   0.0769231   0.3108809   0.0000000), wk =   0.1420118
        k(   11) = (   0.0769231   0.3997040   0.0000000), wk =   0.1420118
        k(   12) = (   0.0769231   0.4885272   0.0000000), wk =   0.1420118
        k(   13) = (   0.0769231   0.5773503   0.0000000), wk =   0.0710059
        k(   14) = (   0.1538462   0.2664694   0.0000000), wk =   0.0710059
        k(   15) = (   0.1538462   0.3552925   0.0000000), wk =   0.1420118
        k(   16) = (   0.1538462   0.4441156   0.0000000), wk =   0.1420118
        k(   17) = (   0.1538462   0.5329387   0.0000000), wk =   0.1420118
        k(   18) = (   0.2307692   0.3997040   0.0000000), wk =   0.0710059
        k(   19) = (   0.2307692   0.4885272   0.0000000), wk =   0.1420118
        k(   20) = (   0.2307692   0.5773503   0.0000000), wk =   0.0710059
        k(   21) = (   0.3076923   0.5329387   0.0000000), wk =   0.0710059

     Dense  grid:   160699 G-vectors     FFT dimensions: (  45,  45, 192)

     Estimated max dynamical RAM per process >     111.24 MB

     Estimated total dynamical RAM >     667.47 MB

     Initial potential from superposition of free atoms

     starting charge   25.99991, renormalised to   28.00000

     negative rho (up, down):  5.017E-03 0.000E+00
     Starting wfcs are   18 randomized atomic wfcs

     total cpu time spent up to now is        2.2 secs

     Self-consistent Calculation

     iteration #  1     ecut=    60.00 Ry     beta= 0.70
     Davidson diagonalization with overlap
     ethr =  1.00E-02,  avg # of iterations =  2.0

     negative rho (up, down):  3.304E-03 0.000E+00

     total cpu time spent up to now is        7.0 secs

     total energy              =    -325.49396344 Ry
     estimated scf accuracy    <       2.41389718 Ry

     iteration #  2     ecut=    60.00 Ry     beta= 0.70
     Davidson diagonalization with overlap
     ethr =  8.62E-03,  avg # of iterations =  2.0

     negative rho (up, down):  3.596E-03 0.000E+00

     total cpu time spent up to now is       13.3 secs

     total energy              =    -326.34776988 Ry
     estimated scf accuracy    <       0.29498252 Ry

     iteration #  3     ecut=    60.00 Ry     beta= 0.70
     Davidson diagonalization with overlap
     ethr =  1.05E-03,  avg # of iterations =  2.0

     negative rho (up, down):  3.777E-03 0.000E+00

     total cpu time spent up to now is       18.2 secs

     total energy              =    -326.38740867 Ry
     estimated scf accuracy    <       0.00612927 Ry

     iteration #  4     ecut=    60.00 Ry     beta= 0.70
     Davidson diagonalization with overlap
     ethr =  2.19E-05,  avg # of iterations =  3.0

     negative rho (up, down):  3.699E-03 0.000E+00

     total cpu time spent up to now is       23.5 secs

     total energy              =    -326.38995757 Ry
     estimated scf accuracy    <       0.00103642 Ry

     iteration #  5     ecut=    60.00 Ry     beta= 0.70
     Davidson diagonalization with overlap
     ethr =  3.70E-06,  avg # of iterations =  2.2

     negative rho (up, down):  3.680E-03 0.000E+00

     total cpu time spent up to now is       28.3 secs

     total energy              =    -326.39022647 Ry
     estimated scf accuracy    <       0.00001264 Ry

     iteration #  6     ecut=    60.00 Ry     beta= 0.70
     Davidson diagonalization with overlap
     ethr =  4.51E-08,  avg # of iterations =  5.4

     negative rho (up, down):  3.681E-03 0.000E+00

     total cpu time spent up to now is       34.8 secs

     total energy              =    -326.39051503 Ry
     estimated scf accuracy    <       0.00000398 Ry

     iteration #  7     ecut=    60.00 Ry     beta= 0.70
     Davidson diagonalization with overlap
     ethr =  1.42E-08,  avg # of iterations =  1.2

     negative rho (up, down):  3.679E-03 0.000E+00

     total cpu time spent up to now is       39.0 secs

     total energy              =    -326.39051359 Ry
     estimated scf accuracy    <       0.00000453 Ry

     iteration #  8     ecut=    60.00 Ry     beta= 0.70
     Davidson diagonalization with overlap
     ethr =  1.42E-08,  avg # of iterations =  2.0

     negative rho (up, down):  3.681E-03 0.000E+00

     total cpu time spent up to now is       43.0 secs

     End of self-consistent calculation

          k = 0.0000 0.0000 0.0000 ( 20001 PWs)   bands (ev):

   -24.2030 -24.2030 -24.2015 -24.0890 -24.0890 -23.9395 -23.9395 -23.8572
   -23.8572 -23.7923 -12.2918  -4.3436  -3.7568  -3.4332

          k = 0.0000 0.0888 0.0000 ( 19997 PWs)   bands (ev):

   -24.2178 -24.2174 -24.2007 -24.0903 -24.0867 -23.9253 -23.9232 -23.8599
   -23.8560 -23.7920 -12.2413  -4.6952  -4.2913  -3.5431

          k = 0.0000 0.1776 0.0000 ( 20075 PWs)   bands (ev):

   -24.2522 -24.2519 -24.1975 -24.0938 -24.0800 -23.8936 -23.8845 -23.8676
   -23.8525 -23.7896 -12.0906  -5.7623  -4.1359  -3.8092

          k = 0.0000 0.2665 0.0000 ( 20059 PWs)   bands (ev):

   -24.2914 -24.2910 -24.1929 -24.0985 -24.0696 -23.8793 -23.8637 -23.8477
   -23.8398 -23.7809 -11.8428  -6.7771  -4.1202  -3.8827

          k = 0.0000 0.3553 0.0000 ( 20089 PWs)   bands (ev):

   -24.3266 -24.3251 -24.1878 -24.1034 -24.0571 -23.8932 -23.8478 -23.8429
   -23.7993 -23.7626 -11.5070  -7.7052  -4.3982  -3.5443

          k = 0.0000 0.4441 0.0000 ( 20157 PWs)   bands (ev):

   -24.3523 -24.3498 -24.1836 -24.1073 -24.0448 -23.9067 -23.8431 -23.8390
   -23.7693 -23.7424 -11.1116  -8.5030  -4.6008  -3.1531

          k = 0.0000 0.5329 0.0000 ( 20124 PWs)   bands (ev):

   -24.3658 -24.3627 -24.1812 -24.1095 -24.0367 -23.9154 -23.8424 -23.8368
   -23.7534 -23.7302 -10.7651  -9.0530  -4.7066  -2.8178

          k = 0.0769 0.1332 0.0000 ( 20033 PWs)   bands (ev):

   -24.2508 -24.2303 -24.2011 -24.0928 -24.0820 -23.9030 -23.8959 -23.8652
   -23.8535 -23.7906 -12.1407  -5.4721  -4.1874  -3.7644

          k = 0.0769 0.2221 0.0000 ( 20066 PWs)   bands (ev):

   -24.2938 -24.2571 -24.1987 -24.0972 -24.0730 -23.8753 -23.8722 -23.8576
   -23.8491 -23.7839 -11.9412  -6.4067  -4.1099  -3.9828

          k = 0.0769 0.3109 0.0000 ( 20085 PWs)   bands (ev):

   -24.3350 -24.2867 -24.1943 -24.1024 -24.0609 -23.8888 -23.8498 -23.8440
   -23.8224 -23.7650 -11.6479  -7.3266  -4.4490  -3.6855

          k = 0.0769 0.3997 0.0000 ( 20101 PWs)   bands (ev):

   -24.3680 -24.3115 -24.1897 -24.1071 -24.0474 -23.9036 -23.8419 -23.8393
   -23.7938 -23.7387 -11.2762  -8.1672  -4.7178  -3.3144

          k = 0.0769 0.4885 0.0000 ( 20117 PWs)   bands (ev):

   -24.3891 -24.3276 -24.1863 -24.1103 -24.0358 -23.9160 -23.8407 -23.8362
   -23.7749 -23.7182 -10.8787  -8.8531  -4.8874  -2.9256

          k = 0.0769 0.5774 0.0000 ( 20130 PWs)   bands (ev):

   -24.3964 -24.3332 -24.1850 -24.1115 -24.0310 -23.9211 -23.8407 -23.8350
   -23.7683 -23.7107 -10.6604  -9.1688  -4.9452  -2.7164

          k = 0.1538 0.2665 0.0000 ( 20097 PWs)   bands (ev):

   -24.3382 -24.2676 -24.2011 -24.1025 -24.0615 -23.8878 -23.8472 -23.8440
   -23.8364 -23.7642 -11.6953  -7.1671  -4.5492  -3.7330

          k = 0.1538 0.3553 0.0000 ( 20079 PWs)   bands (ev):

   -24.3769 -24.2813 -24.2007 -24.1080 -24.0469 -23.9036 -23.8386 -23.8347
   -23.8189 -23.7328 -11.3609  -7.9393  -4.9420  -3.3977

          k = 0.1538 0.4441 0.0000 ( 20111 PWs)   bands (ev):

   -24.4051 -24.2933 -24.1987 -24.1125 -24.0316 -23.9198 -23.8347 -23.8343
   -23.8007 -23.7051 -10.9625  -8.6516  -5.2193  -3.0045

          k = 0.1538 0.5329 0.0000 ( 20092 PWs)   bands (ev):

   -24.4199 -24.3002 -24.1971 -24.1150 -24.0206 -23.9313 -23.8359 -23.8319
   -23.7907 -23.6896 -10.5988  -9.1785  -5.3606  -2.6529

          k = 0.2308 0.3997 0.0000 ( 20113 PWs)   bands (ev):

   -24.4106 -24.2764 -24.2077 -24.1135 -24.0294 -23.9219 -23.8334 -23.8264
   -23.8165 -23.7003 -10.9928  -8.5629  -5.3702  -3.0331

          k = 0.2308 0.4885 0.0000 ( 20105 PWs)   bands (ev):

   -24.4322 -24.2731 -24.2126 -24.1174 -24.0116 -23.9402 -23.8297 -23.8280
   -23.8089 -23.6778 -10.5785  -9.1408  -5.6438  -2.6291

          k = 0.2308 0.5774 0.0000 ( 20103 PWs)   bands (ev):

   -24.4396 -24.2720 -24.2143 -24.1188 -24.0022 -23.9498 -23.8292 -23.8284
   -23.8058 -23.6698 -10.3137  -9.4621  -5.7367  -2.3755

          k = 0.3077 0.5329 0.0000 ( 20121 PWs)   bands (ev):

   -24.4464 -24.2533 -24.2291 -24.1203 -23.9897 -23.9622 -23.8270 -23.8228
   -23.8153 -23.6629 -10.1530  -9.6154  -5.8766  -2.2186

     highest occupied level (ev):    -2.2186

!    total energy              =    -326.39051378 Ry
     estimated scf accuracy    <       0.00000067 Ry

     The total energy is the sum of the following terms:
     one-electron contribution =    -882.69957465 Ry
     hartree contribution      =     448.39574104 Ry
     xc contribution           =     -95.06498391 Ry
     ewald contribution        =     202.97830373 Ry

     convergence has been achieved in   8 iterations

     Writing output data file ../tmp/stanene.save/

     init_run     :      1.95s CPU      2.12s WALL (       1 calls)
     electrons    :     38.79s CPU     40.80s WALL (       1 calls)

     Called by init_run:
     wfcinit      :      1.56s CPU      1.67s WALL (       1 calls)
     potinit      :      0.10s CPU      0.12s WALL (       1 calls)
     hinit0       :      0.15s CPU      0.17s WALL (       1 calls)

     Called by electrons:
     c_bands      :     32.94s CPU     34.04s WALL (       8 calls)
     sum_band     :      4.63s CPU      5.33s WALL (       8 calls)
     v_of_rho     :      0.34s CPU      0.38s WALL (       9 calls)
     newd         :      0.87s CPU      1.04s WALL (       9 calls)
     mix_rho      :      0.09s CPU      0.10s WALL (       8 calls)

     Called by c_bands:
     init_us_2    :      0.37s CPU      0.38s WALL (     357 calls)
     cegterg      :     31.50s CPU     32.58s WALL (     168 calls)

     Called by *egterg:
     cdiaghg      :      0.38s CPU      0.38s WALL (     585 calls)
     h_psi        :     21.80s CPU     22.91s WALL (     606 calls)
     s_psi        :      1.45s CPU      1.47s WALL (     606 calls)
     g_psi        :      0.14s CPU      0.14s WALL (     417 calls)

     Called by h_psi:
     h_psi:calbec :      2.54s CPU      2.68s WALL (     606 calls)
     vloc_psi     :     17.69s CPU     18.62s WALL (     606 calls)
     add_vuspsi   :      1.50s CPU      1.53s WALL (     606 calls)

     General routines
     calbec       :      3.30s CPU      3.48s WALL (     774 calls)
     fft          :      0.25s CPU      0.27s WALL (      99 calls)
     ffts         :      0.02s CPU      0.02s WALL (       8 calls)
     fftw         :     18.66s CPU     19.66s WALL (   16538 calls)

     Parallel routines
     fft_scatt_xy :      1.73s CPU      1.85s WALL (   16645 calls)
     fft_scatt_yz :     10.43s CPU     10.90s WALL (   16645 calls)

     PWSCF        :     40.89s CPU     43.19s WALL


   This run was terminated on:  21: 4: 7  20Jan2024            

=------------------------------------------------------------------------------=
   JOB DONE.
=------------------------------------------------------------------------------=
