
     Program PWSCF v.6.7MaX starts on 20Jan2024 at 21: 2:13 

     This program is part of the open-source Quantum ESPRESSO suite
     for quantum simulation of materials; please cite
         "P. Giannozzi et al., J. Phys.:Condens. Matter 21 395502 (2009);
         "P. Giannozzi et al., J. Phys.:Condens. Matter 29 465901 (2017);
          URL http://www.quantum-espresso.org", 
     in publications or presentations arising from this work. More details at
     http://www.quantum-espresso.org/quote

     Parallel version (MPI), running on     6 processors

     MPI processes distributed on     1 nodes
     R & G space division:  proc/nbgrp/npool/nimage =       6
     Waiting for input...
     Reading input from standard input

     Current dimensions of program PWSCF are:
     Max number of different atomic species (ntypx) = 10
     Max number of k-points (npk) =  40000
     Max angular momentum in pseudopotentials (lmaxx) =  3

     Subspace diagonalization in iterative solution of the eigenvalue problem:
     one sub-group per band group will be used
     scalapack distributed-memory algorithm (size of sub-group:  2*  2 procs)


     Parallelization info
     --------------------
     sticks:   dense  smooth     PW     G-vecs:    dense   smooth      PW
     Min         214     214     60                26776    26776    3976
     Max         215     215     61                26799    26799    3991
     Sum        1285    1285    361               160699   160699   23883



     bravais-lattice index     =            4
     lattice parameter (alat)  =       8.8439  a.u.
     unit-cell volume          =    2560.0529 (a.u.)^3
     number of atoms/cell      =            2
     number of atomic types    =            1
     number of electrons       =        28.00
     number of Kohn-Sham states=           14
     kinetic-energy cutoff     =      60.0000  Ry
     charge density cutoff     =     240.0000  Ry
     scf convergence threshold =      1.0E-06
     mixing beta               =       0.7000
     number of iterations used =            8  plain     mixing
     Exchange-correlation= SLA  PW   PBE  PBE
                           (   1   4   3   4   0   0   0)

     celldm(1)=   8.843918  celldm(2)=   0.000000  celldm(3)=   4.273504
     celldm(4)=   0.000000  celldm(5)=   0.000000  celldm(6)=   0.000000

     crystal axes: (cart. coord. in units of alat)
               a(1) = (   1.000000   0.000000   0.000000 )  
               a(2) = (  -0.500000   0.866025   0.000000 )  
               a(3) = (   0.000000   0.000000   4.273504 )  

     reciprocal axes: (cart. coord. in units 2 pi/alat)
               b(1) = (  1.000000  0.577350 -0.000000 )  
               b(2) = (  0.000000  1.154701  0.000000 )  
               b(3) = (  0.000000 -0.000000  0.234000 )  


     PseudoPot. # 1 for Sn read from file:
     ../pseudo/Sn_pbe_v1.uspp.F.UPF
     MD5 check sum: 4cf58ce39ec5d5d420df3dd08604eb00
     Pseudo is Ultrasoft + core correction, Zval = 14.0
     Generated by new atomic code, or converted to UPF format
     Using radial grid of  891 points,  6 beta functions with: 
                l(1) =   0
                l(2) =   0
                l(3) =   1
                l(4) =   1
                l(5) =   2
                l(6) =   2
     Q(r) pseudized with  6 coefficients,  rinner =    1.200   1.200   1.200
                                                       1.200   1.200

     atomic species   valence    mass     pseudopotential
        Sn            14.00   118.71000     Sn( 1.00)

     24 Sym. Ops., with inversion, found



   Cartesian axes

     site n.     atom                  positions (alat units)
         1           Sn  tau(   1) = (   0.0000000   0.5773503   2.1367521  )
         2           Sn  tau(   2) = (   0.5000000   0.2886751   2.1367521  )

     number of k points=    16
                       cart. coord. in units 2pi/alat
        k(    1) = (   0.0000000   0.0000000   0.0000000), wk =   0.0165289
        k(    2) = (   0.0000000   0.1049728   0.0000000), wk =   0.0991736
        k(    3) = (   0.0000000   0.2099456   0.0000000), wk =   0.0991736
        k(    4) = (   0.0000000   0.3149183   0.0000000), wk =   0.0991736
        k(    5) = (   0.0000000   0.4198911   0.0000000), wk =   0.0991736
        k(    6) = (   0.0000000   0.5248639   0.0000000), wk =   0.0991736
        k(    7) = (   0.0909091   0.1574592   0.0000000), wk =   0.0991736
        k(    8) = (   0.0909091   0.2624319   0.0000000), wk =   0.1983471
        k(    9) = (   0.0909091   0.3674047   0.0000000), wk =   0.1983471
        k(   10) = (   0.0909091   0.4723775   0.0000000), wk =   0.1983471
        k(   11) = (   0.0909091   0.5773503   0.0000000), wk =   0.0991736
        k(   12) = (   0.1818182   0.3149183   0.0000000), wk =   0.0991736
        k(   13) = (   0.1818182   0.4198911   0.0000000), wk =   0.1983471
        k(   14) = (   0.1818182   0.5248639   0.0000000), wk =   0.1983471
        k(   15) = (   0.2727273   0.4723775   0.0000000), wk =   0.0991736
        k(   16) = (   0.2727273   0.5773503   0.0000000), wk =   0.0991736

     Dense  grid:   160699 G-vectors     FFT dimensions: (  45,  45, 192)

     Estimated max dynamical RAM per process >     107.67 MB

     Estimated total dynamical RAM >     646.01 MB

     Initial potential from superposition of free atoms

     starting charge   25.99991, renormalised to   28.00000

     negative rho (up, down):  5.017E-03 0.000E+00
     Starting wfcs are   18 randomized atomic wfcs

     total cpu time spent up to now is        1.8 secs

     Self-consistent Calculation

     iteration #  1     ecut=    60.00 Ry     beta= 0.70
     Davidson diagonalization with overlap
     ethr =  1.00E-02,  avg # of iterations =  2.0

     negative rho (up, down):  3.317E-03 0.000E+00

     total cpu time spent up to now is        5.9 secs

     total energy              =    -325.49358018 Ry
     estimated scf accuracy    <       2.41426803 Ry

     iteration #  2     ecut=    60.00 Ry     beta= 0.70
     Davidson diagonalization with overlap
     ethr =  8.62E-03,  avg # of iterations =  2.0

     negative rho (up, down):  3.604E-03 0.000E+00

     total cpu time spent up to now is        9.6 secs

     total energy              =    -326.34757418 Ry
     estimated scf accuracy    <       0.29505850 Ry

     iteration #  3     ecut=    60.00 Ry     beta= 0.70
     Davidson diagonalization with overlap
     ethr =  1.05E-03,  avg # of iterations =  2.0

     negative rho (up, down):  3.778E-03 0.000E+00

     total cpu time spent up to now is       13.4 secs

     total energy              =    -326.38720962 Ry
     estimated scf accuracy    <       0.00613560 Ry

     iteration #  4     ecut=    60.00 Ry     beta= 0.70
     Davidson diagonalization with overlap
     ethr =  2.19E-05,  avg # of iterations =  3.0

     negative rho (up, down):  3.700E-03 0.000E+00

     total cpu time spent up to now is       17.7 secs

     total energy              =    -326.38973093 Ry
     estimated scf accuracy    <       0.00104102 Ry

     iteration #  5     ecut=    60.00 Ry     beta= 0.70
     Davidson diagonalization with overlap
     ethr =  3.72E-06,  avg # of iterations =  2.3

     negative rho (up, down):  3.679E-03 0.000E+00

     total cpu time spent up to now is       22.5 secs

     total energy              =    -326.39000049 Ry
     estimated scf accuracy    <       0.00001112 Ry

     iteration #  6     ecut=    60.00 Ry     beta= 0.70
     Davidson diagonalization with overlap
     ethr =  3.97E-08,  avg # of iterations =  5.1

     negative rho (up, down):  3.681E-03 0.000E+00

     total cpu time spent up to now is       26.9 secs

     total energy              =    -326.39040128 Ry
     estimated scf accuracy    <       0.00000732 Ry

     iteration #  7     ecut=    60.00 Ry     beta= 0.70
     Davidson diagonalization with overlap
     ethr =  2.62E-08,  avg # of iterations =  1.0

     negative rho (up, down):  3.681E-03 0.000E+00

     total cpu time spent up to now is       29.7 secs

     total energy              =    -326.39039840 Ry
     estimated scf accuracy    <       0.00000893 Ry

     iteration #  8     ecut=    60.00 Ry     beta= 0.70
     Davidson diagonalization with overlap
     ethr =  2.62E-08,  avg # of iterations =  1.9

     negative rho (up, down):  3.681E-03 0.000E+00

     total cpu time spent up to now is       32.6 secs

     End of self-consistent calculation

          k = 0.0000 0.0000 0.0000 ( 20001 PWs)   bands (ev):

   -24.2036 -24.2036 -24.2017 -24.0893 -24.0893 -23.9402 -23.9402 -23.8576
   -23.8576 -23.7926 -12.2919  -4.3434  -3.7569  -3.4334

          k = 0.0000 0.1050 0.0000 ( 19983 PWs)   bands (ev):

   -24.2238 -24.2232 -24.2006 -24.0911 -24.0861 -23.9209 -23.9179 -23.8613
   -23.8558 -23.7920 -12.2214  -4.8911  -4.2704  -3.5834

          k = 0.0000 0.2099 0.0000 ( 20069 PWs)   bands (ev):

   -24.2671 -24.2669 -24.1962 -24.0957 -24.0769 -23.8822 -23.8718 -23.8690
   -23.8512 -23.7878 -12.0115  -6.1394  -4.0545  -3.9223

          k = 0.0000 0.3149 0.0000 ( 20081 PWs)   bands (ev):

   -24.3121 -24.3112 -24.1904 -24.1016 -24.0632 -23.8871 -23.8536 -23.8454
   -23.8174 -23.7722 -11.6696  -7.2964  -4.2795  -3.7072

          k = 0.0000 0.4199 0.0000 ( 20129 PWs)   bands (ev):

   -24.3470 -24.3448 -24.1850 -24.1067 -24.0482 -23.9036 -23.8441 -23.8402
   -23.7768 -23.7480 -11.2220  -8.3025  -4.5547  -3.2612

          k = 0.0000 0.5249 0.0000 ( 20122 PWs)   bands (ev):

   -24.3657 -24.3627 -24.1816 -24.1097 -24.0375 -23.9153 -23.8427 -23.8373
   -23.7548 -23.7314 -10.7878  -9.0203  -4.7015  -2.8392

          k = 0.0909 0.1575 0.0000 ( 20045 PWs)   bands (ev):

   -24.2666 -24.2388 -24.2012 -24.0945 -24.0796 -23.8928 -23.8833 -23.8686
   -23.8524 -23.7894 -12.0811  -5.7986  -4.1258  -3.8854

          k = 0.0909 0.2624 0.0000 ( 20081 PWs)   bands (ev):

   -24.3182 -24.2692 -24.1983 -24.1003 -24.0673 -23.8823 -23.8588 -23.8467
   -23.8411 -23.7757 -11.8043  -6.8709  -4.3200  -3.8432

          k = 0.0909 0.3674 0.0000 ( 20085 PWs)   bands (ev):

   -24.3626 -24.2995 -24.1931 -24.1064 -24.0514 -23.8997 -23.8427 -23.8408
   -23.8063 -23.7453 -11.4041  -7.8955  -4.6947  -3.4409

          k = 0.0909 0.4724 0.0000 ( 20116 PWs)   bands (ev):

   -24.3919 -24.3205 -24.1887 -24.1108 -24.0364 -23.9159 -23.8403 -23.8364
   -23.7818 -23.7175 -10.9321  -8.7591  -4.9366  -2.9765

          k = 0.0909 0.5774 0.0000 ( 20124 PWs)   bands (ev):

   -24.4021 -24.3278 -24.1870 -24.1124 -24.0296 -23.9231 -23.8404 -23.8348
   -23.7730 -23.7070 -10.6433  -9.1809  -5.0195  -2.6991

          k = 0.1818 0.3149 0.0000 ( 20081 PWs)   bands (ev):

   -24.3684 -24.2754 -24.2027 -24.1070 -24.0513 -23.8995 -23.8403 -23.8329
   -23.8298 -23.7418 -11.4660  -7.7128  -4.8640  -3.5022

          k = 0.1818 0.4199 0.0000 ( 20114 PWs)   bands (ev):

   -24.4067 -24.2839 -24.2038 -24.1130 -24.0321 -23.9198 -23.8345 -23.8315
   -23.8103 -23.7052 -11.0179  -8.5408  -5.2825  -3.0579

          k = 0.1818 0.5249 0.0000 ( 20112 PWs)   bands (ev):

   -24.4272 -24.2898 -24.2032 -24.1165 -24.0162 -23.9363 -23.8337 -23.8311
   -23.7981 -23.6837 -10.5595  -9.2023  -5.4991  -2.6131

          k = 0.2727 0.4724 0.0000 ( 20109 PWs)   bands (ev):

   -24.4360 -24.2676 -24.2174 -24.1184 -24.0086 -23.9438 -23.8294 -23.8256
   -23.8133 -23.6753 -10.5380  -9.1808  -5.7063  -2.5890

          k = 0.2727 0.5774 0.0000 ( 20103 PWs)   bands (ev):

   -24.4462 -24.2586 -24.2256 -24.1204 -23.9921 -23.9605 -23.8276 -23.8253
   -23.8128 -23.6644 -10.1584  -9.6149  -5.8553  -2.2246

     highest occupied level (ev):    -2.2246

!    total energy              =    -326.39039883 Ry
     estimated scf accuracy    <       0.00000064 Ry

     The total energy is the sum of the following terms:
     one-electron contribution =    -882.70162957 Ry
     hartree contribution      =     448.39840320 Ry
     xc contribution           =     -95.06547620 Ry
     ewald contribution        =     202.97830373 Ry

     convergence has been achieved in   8 iterations

     Writing output data file ../tmp/stanene.save/

     init_run     :      1.60s CPU      1.73s WALL (       1 calls)
     electrons    :     29.36s CPU     30.81s WALL (       1 calls)

     Called by init_run:
     wfcinit      :      1.15s CPU      1.22s WALL (       1 calls)
     potinit      :      0.13s CPU      0.14s WALL (       1 calls)
     hinit0       :      0.18s CPU      0.18s WALL (       1 calls)

     Called by electrons:
     c_bands      :     23.88s CPU     24.46s WALL (       8 calls)
     sum_band     :      4.13s CPU      4.83s WALL (       8 calls)
     v_of_rho     :      0.47s CPU      0.48s WALL (       9 calls)
     newd         :      0.91s CPU      1.12s WALL (       9 calls)
     mix_rho      :      0.10s CPU      0.10s WALL (       8 calls)

     Called by c_bands:
     init_us_2    :      0.26s CPU      0.27s WALL (     272 calls)
     cegterg      :     22.82s CPU     23.39s WALL (     128 calls)

     Called by *egterg:
     cdiaghg      :      0.28s CPU      0.28s WALL (     438 calls)
     h_psi        :     15.67s CPU     16.30s WALL (     454 calls)
     s_psi        :      1.08s CPU      1.08s WALL (     454 calls)
     g_psi        :      0.09s CPU      0.09s WALL (     310 calls)

     Called by h_psi:
     h_psi:calbec :      1.80s CPU      1.87s WALL (     454 calls)
     vloc_psi     :     12.71s CPU     13.24s WALL (     454 calls)
     add_vuspsi   :      1.11s CPU      1.12s WALL (     454 calls)

     General routines
     calbec       :      2.42s CPU      2.52s WALL (     582 calls)
     fft          :      0.35s CPU      0.36s WALL (      99 calls)
     ffts         :      0.01s CPU      0.01s WALL (       8 calls)
     fftw         :     13.76s CPU     14.32s WALL (   12452 calls)

     Parallel routines
     fft_scatt_xy :      1.30s CPU      1.37s WALL (   12559 calls)
     fft_scatt_yz :      7.73s CPU      7.98s WALL (   12559 calls)

     PWSCF        :     31.09s CPU     32.76s WALL


   This run was terminated on:  21: 2:46  20Jan2024            

=------------------------------------------------------------------------------=
   JOB DONE.
=------------------------------------------------------------------------------=
