
     Program PWSCF v.6.7MaX starts on 20Jan2024 at 21: 0:36 

     This program is part of the open-source Quantum ESPRESSO suite
     for quantum simulation of materials; please cite
         "P. Giannozzi et al., J. Phys.:Condens. Matter 21 395502 (2009);
         "P. Giannozzi et al., J. Phys.:Condens. Matter 29 465901 (2017);
          URL http://www.quantum-espresso.org", 
     in publications or presentations arising from this work. More details at
     http://www.quantum-espresso.org/quote

     Parallel version (MPI), running on     6 processors

     MPI processes distributed on     1 nodes
     R & G space division:  proc/nbgrp/npool/nimage =       6
     Waiting for input...
     Reading input from standard input

     Current dimensions of program PWSCF are:
     Max number of different atomic species (ntypx) = 10
     Max number of k-points (npk) =  40000
     Max angular momentum in pseudopotentials (lmaxx) =  3

     Subspace diagonalization in iterative solution of the eigenvalue problem:
     one sub-group per band group will be used
     scalapack distributed-memory algorithm (size of sub-group:  2*  2 procs)


     Parallelization info
     --------------------
     sticks:   dense  smooth     PW     G-vecs:    dense   smooth      PW
     Min         214     214     60                26776    26776    3972
     Max         215     215     61                26799    26799    3987
     Sum        1285    1285    361               160699   160699   23859



     bravais-lattice index     =            4
     lattice parameter (alat)  =       8.8439  a.u.
     unit-cell volume          =    2560.0529 (a.u.)^3
     number of atoms/cell      =            2
     number of atomic types    =            1
     number of electrons       =        28.00
     number of Kohn-Sham states=           14
     kinetic-energy cutoff     =      60.0000  Ry
     charge density cutoff     =     240.0000  Ry
     scf convergence threshold =      1.0E-06
     mixing beta               =       0.7000
     number of iterations used =            8  plain     mixing
     Exchange-correlation= SLA  PW   PBE  PBE
                           (   1   4   3   4   0   0   0)

     celldm(1)=   8.843918  celldm(2)=   0.000000  celldm(3)=   4.273504
     celldm(4)=   0.000000  celldm(5)=   0.000000  celldm(6)=   0.000000

     crystal axes: (cart. coord. in units of alat)
               a(1) = (   1.000000   0.000000   0.000000 )  
               a(2) = (  -0.500000   0.866025   0.000000 )  
               a(3) = (   0.000000   0.000000   4.273504 )  

     reciprocal axes: (cart. coord. in units 2 pi/alat)
               b(1) = (  1.000000  0.577350 -0.000000 )  
               b(2) = (  0.000000  1.154701  0.000000 )  
               b(3) = (  0.000000 -0.000000  0.234000 )  


     PseudoPot. # 1 for Sn read from file:
     ../pseudo/Sn_pbe_v1.uspp.F.UPF
     MD5 check sum: 4cf58ce39ec5d5d420df3dd08604eb00
     Pseudo is Ultrasoft + core correction, Zval = 14.0
     Generated by new atomic code, or converted to UPF format
     Using radial grid of  891 points,  6 beta functions with: 
                l(1) =   0
                l(2) =   0
                l(3) =   1
                l(4) =   1
                l(5) =   2
                l(6) =   2
     Q(r) pseudized with  6 coefficients,  rinner =    1.200   1.200   1.200
                                                       1.200   1.200

     atomic species   valence    mass     pseudopotential
        Sn            14.00   118.71000     Sn( 1.00)

     24 Sym. Ops., with inversion, found



   Cartesian axes

     site n.     atom                  positions (alat units)
         1           Sn  tau(   1) = (   0.0000000   0.5773503   2.1367521  )
         2           Sn  tau(   2) = (   0.5000000   0.2886751   2.1367521  )

     number of k points=    10
                       cart. coord. in units 2pi/alat
        k(    1) = (   0.0000000   0.0000000   0.0000000), wk =   0.0312500
        k(    2) = (   0.0000000   0.1443376   0.0000000), wk =   0.1875000
        k(    3) = (   0.0000000   0.2886751   0.0000000), wk =   0.1875000
        k(    4) = (   0.0000000   0.4330127   0.0000000), wk =   0.1875000
        k(    5) = (   0.0000000  -0.5773503   0.0000000), wk =   0.0937500
        k(    6) = (   0.1250000   0.2165064   0.0000000), wk =   0.1875000
        k(    7) = (   0.1250000   0.3608439   0.0000000), wk =   0.3750000
        k(    8) = (   0.1250000   0.5051815   0.0000000), wk =   0.3750000
        k(    9) = (   0.2500000   0.4330127   0.0000000), wk =   0.1875000
        k(   10) = (   0.2500000   0.5773503   0.0000000), wk =   0.1875000

     Dense  grid:   160699 G-vectors     FFT dimensions: (  45,  45, 192)

     Estimated max dynamical RAM per process >     103.38 MB

     Estimated total dynamical RAM >     620.26 MB

     Initial potential from superposition of free atoms

     starting charge   25.99991, renormalised to   28.00000

     negative rho (up, down):  5.017E-03 0.000E+00
     Starting wfcs are   18 randomized atomic wfcs

     total cpu time spent up to now is        1.3 secs

     Self-consistent Calculation

     iteration #  1     ecut=    60.00 Ry     beta= 0.70
     Davidson diagonalization with overlap
     ethr =  1.00E-02,  avg # of iterations =  2.0

     negative rho (up, down):  3.313E-03 0.000E+00

     total cpu time spent up to now is        3.8 secs

     total energy              =    -325.49237018 Ry
     estimated scf accuracy    <       2.41519584 Ry

     iteration #  2     ecut=    60.00 Ry     beta= 0.70
     Davidson diagonalization with overlap
     ethr =  8.63E-03,  avg # of iterations =  2.0

     negative rho (up, down):  3.602E-03 0.000E+00

     total cpu time spent up to now is        6.5 secs

     total energy              =    -326.34682742 Ry
     estimated scf accuracy    <       0.29528508 Ry

     iteration #  3     ecut=    60.00 Ry     beta= 0.70
     Davidson diagonalization with overlap
     ethr =  1.05E-03,  avg # of iterations =  2.0

     negative rho (up, down):  3.779E-03 0.000E+00

     total cpu time spent up to now is        9.0 secs

     total energy              =    -326.38644597 Ry
     estimated scf accuracy    <       0.00614470 Ry

     iteration #  4     ecut=    60.00 Ry     beta= 0.70
     Davidson diagonalization with overlap
     ethr =  2.19E-05,  avg # of iterations =  2.9

     negative rho (up, down):  3.702E-03 0.000E+00

     total cpu time spent up to now is       11.7 secs

     total energy              =    -326.38891771 Ry
     estimated scf accuracy    <       0.00105092 Ry

     iteration #  5     ecut=    60.00 Ry     beta= 0.70
     Davidson diagonalization with overlap
     ethr =  3.75E-06,  avg # of iterations =  2.2

     negative rho (up, down):  3.679E-03 0.000E+00

     total cpu time spent up to now is       14.3 secs

     total energy              =    -326.38918505 Ry
     estimated scf accuracy    <       0.00000873 Ry

     iteration #  6     ecut=    60.00 Ry     beta= 0.70
     Davidson diagonalization with overlap
     ethr =  3.12E-08,  avg # of iterations =  5.6

     negative rho (up, down):  3.681E-03 0.000E+00

     total cpu time spent up to now is       17.4 secs

     total energy              =    -326.38994255 Ry
     estimated scf accuracy    <       0.00002475 Ry

     iteration #  7     ecut=    60.00 Ry     beta= 0.70
     Davidson diagonalization with overlap
     ethr =  3.12E-08,  avg # of iterations =  1.0

     negative rho (up, down):  3.680E-03 0.000E+00

     total cpu time spent up to now is       19.2 secs

     total energy              =    -326.38993547 Ry
     estimated scf accuracy    <       0.00002797 Ry

     iteration #  8     ecut=    60.00 Ry     beta= 0.70
     Davidson diagonalization with overlap
     ethr =  3.12E-08,  avg # of iterations =  2.0

     negative rho (up, down):  3.680E-03 0.000E+00

     total cpu time spent up to now is       22.0 secs

     total energy              =    -326.38993626 Ry
     estimated scf accuracy    <       0.00000583 Ry

     iteration #  9     ecut=    60.00 Ry     beta= 0.70
     Davidson diagonalization with overlap
     ethr =  2.08E-08,  avg # of iterations =  1.0

     negative rho (up, down):  3.679E-03 0.000E+00

     total cpu time spent up to now is       24.6 secs

     total energy              =    -326.38993579 Ry
     estimated scf accuracy    <       0.00000525 Ry

     iteration # 10     ecut=    60.00 Ry     beta= 0.70
     Davidson diagonalization with overlap
     ethr =  1.87E-08,  avg # of iterations =  1.0

     negative rho (up, down):  3.681E-03 0.000E+00

     total cpu time spent up to now is       27.0 secs

     total energy              =    -326.38993509 Ry
     estimated scf accuracy    <       0.00000411 Ry

     iteration # 11     ecut=    60.00 Ry     beta= 0.70
     Davidson diagonalization with overlap
     ethr =  1.47E-08,  avg # of iterations =  1.3

     negative rho (up, down):  3.681E-03 0.000E+00

     total cpu time spent up to now is       29.0 secs

     End of self-consistent calculation

          k = 0.0000 0.0000 0.0000 ( 20001 PWs)   bands (ev):

   -24.2030 -24.2030 -24.1994 -24.0873 -24.0873 -23.9396 -23.9396 -23.8556
   -23.8556 -23.7901 -12.2919  -4.3428  -3.7565  -3.4339

          k = 0.0000 0.1443 0.0000 ( 20039 PWs)   bands (ev):

   -24.2382 -24.2373 -24.1973 -24.0906 -24.0813 -23.9061 -23.9005 -23.8625
   -23.8523 -23.7888 -12.1589  -5.3663  -4.2051  -3.6993

          k = 0.0000 0.2887 0.0000 ( 20055 PWs)   bands (ev):

   -24.3006 -24.3002 -24.1901 -24.0981 -24.0650 -23.8810 -23.8573 -23.8448
   -23.8290 -23.7756 -11.7667  -7.0188  -4.1957  -3.8044

          k = 0.0000 0.4330 0.0000 ( 20143 PWs)   bands (ev):

   -24.3495 -24.3474 -24.1826 -24.1053 -24.0445 -23.9035 -23.8417 -23.8377
   -23.7723 -23.7439 -11.1623  -8.4132  -4.5813  -3.2017

          k = 0.0000-0.5774 0.0000 ( 20096 PWs)   bands (ev):

   -24.3673 -24.3644 -24.1794 -24.1081 -24.0339 -23.9150 -23.8405 -23.8349
   -23.7513 -23.7280 -10.7037  -9.1403  -4.7209  -2.7583

          k = 0.1250 0.2165 0.0000 ( 20077 PWs)   bands (ev):

   -24.3052 -24.2558 -24.1991 -24.0968 -24.0691 -23.8761 -23.8660 -23.8522
   -23.8463 -23.7790 -11.8956  -6.5625  -4.2293  -3.9352

          k = 0.1250 0.3608 0.0000 ( 20080 PWs)   bands (ev):

   -24.3705 -24.2879 -24.1957 -24.1055 -24.0473 -23.8998 -23.8378 -23.8375
   -23.8125 -23.7377 -11.3868  -7.9059  -4.8360  -3.4225

          k = 0.1250 0.5052 0.0000 ( 20113 PWs)   bands (ev):

   -24.4081 -24.3097 -24.1910 -24.1113 -24.0263 -23.9222 -23.8360 -23.8321
   -23.7851 -23.7009 -10.7480  -9.0034  -5.1719  -2.7965

          k = 0.2500 0.4330 0.0000 ( 20133 PWs)   bands (ev):

   -24.4235 -24.2728 -24.2102 -24.1142 -24.0183 -23.9299 -23.8295 -23.8244
   -23.8129 -23.6870 -10.7881  -8.8592  -5.5397  -2.8313

          k = 0.2500 0.5774 0.0000 ( 20109 PWs)   bands (ev):

   -24.4428 -24.2649 -24.2182 -24.1178 -23.9958 -23.9528 -23.8261 -23.8257
   -23.8080 -23.6667 -10.2459  -9.5283  -5.7995  -2.3084

     highest occupied level (ev):    -2.3084

!    total energy              =    -326.38993513 Ry
     estimated scf accuracy    <       0.00000029 Ry

     The total energy is the sum of the following terms:
     one-electron contribution =    -882.70527807 Ry
     hartree contribution      =     448.40329277 Ry
     xc contribution           =     -95.06625356 Ry
     ewald contribution        =     202.97830373 Ry

     convergence has been achieved in  11 iterations

     Writing output data file ../tmp/stanene.save/

     init_run     :      1.19s CPU      1.25s WALL (       1 calls)
     electrons    :     26.16s CPU     27.70s WALL (       1 calls)

     Called by init_run:
     wfcinit      :      0.79s CPU      0.81s WALL (       1 calls)
     potinit      :      0.11s CPU      0.12s WALL (       1 calls)
     hinit0       :      0.17s CPU      0.17s WALL (       1 calls)

     Called by electrons:
     c_bands      :     20.07s CPU     20.58s WALL (      11 calls)
     sum_band     :      4.22s CPU      4.92s WALL (      11 calls)
     v_of_rho     :      0.65s CPU      0.66s WALL (      12 calls)
     newd         :      1.12s CPU      1.47s WALL (      12 calls)
     mix_rho      :      0.16s CPU      0.17s WALL (      11 calls)

     Called by c_bands:
     init_us_2    :      0.24s CPU      0.24s WALL (     230 calls)
     cegterg      :     19.08s CPU     19.58s WALL (     110 calls)

     Called by *egterg:
     cdiaghg      :      0.20s CPU      0.21s WALL (     340 calls)
     h_psi        :     13.42s CPU     13.88s WALL (     350 calls)
     s_psi        :      0.88s CPU      0.89s WALL (     350 calls)
     g_psi        :      0.07s CPU      0.07s WALL (     230 calls)

     Called by h_psi:
     h_psi:calbec :      1.68s CPU      1.71s WALL (     350 calls)
     vloc_psi     :     10.76s CPU     11.19s WALL (     350 calls)
     add_vuspsi   :      0.93s CPU      0.94s WALL (     350 calls)

     General routines
     calbec       :      2.23s CPU      2.27s WALL (     460 calls)
     fft          :      0.48s CPU      0.50s WALL (     132 calls)
     ffts         :      0.02s CPU      0.02s WALL (      11 calls)
     fftw         :     11.66s CPU     12.11s WALL (    9998 calls)

     Parallel routines
     fft_scatt_xy :      1.11s CPU      1.16s WALL (   10141 calls)
     fft_scatt_yz :      6.84s CPU      7.07s WALL (   10141 calls)

     PWSCF        :     27.45s CPU     29.12s WALL


   This run was terminated on:  21: 1: 5  20Jan2024            

=------------------------------------------------------------------------------=
   JOB DONE.
=------------------------------------------------------------------------------=
