
     Program PWSCF v.6.7MaX starts on 20Jan2024 at 21: 4: 7 

     This program is part of the open-source Quantum ESPRESSO suite
     for quantum simulation of materials; please cite
         "P. Giannozzi et al., J. Phys.:Condens. Matter 21 395502 (2009);
         "P. Giannozzi et al., J. Phys.:Condens. Matter 29 465901 (2017);
          URL http://www.quantum-espresso.org", 
     in publications or presentations arising from this work. More details at
     http://www.quantum-espresso.org/quote

     Parallel version (MPI), running on     6 processors

     MPI processes distributed on     1 nodes
     R & G space division:  proc/nbgrp/npool/nimage =       6
     Waiting for input...
     Reading input from standard input

     Current dimensions of program PWSCF are:
     Max number of different atomic species (ntypx) = 10
     Max number of k-points (npk) =  40000
     Max angular momentum in pseudopotentials (lmaxx) =  3

     Subspace diagonalization in iterative solution of the eigenvalue problem:
     one sub-group per band group will be used
     scalapack distributed-memory algorithm (size of sub-group:  2*  2 procs)


     Parallelization info
     --------------------
     sticks:   dense  smooth     PW     G-vecs:    dense   smooth      PW
     Min         214     214     60                26776    26776    3985
     Max         215     215     63                26799    26799    3999
     Sum        1285    1285    367               160699   160699   23937



     bravais-lattice index     =            4
     lattice parameter (alat)  =       8.8439  a.u.
     unit-cell volume          =    2560.0529 (a.u.)^3
     number of atoms/cell      =            2
     number of atomic types    =            1
     number of electrons       =        28.00
     number of Kohn-Sham states=           14
     kinetic-energy cutoff     =      60.0000  Ry
     charge density cutoff     =     240.0000  Ry
     scf convergence threshold =      1.0E-06
     mixing beta               =       0.7000
     number of iterations used =            8  plain     mixing
     Exchange-correlation= SLA  PW   PBE  PBE
                           (   1   4   3   4   0   0   0)

     celldm(1)=   8.843918  celldm(2)=   0.000000  celldm(3)=   4.273504
     celldm(4)=   0.000000  celldm(5)=   0.000000  celldm(6)=   0.000000

     crystal axes: (cart. coord. in units of alat)
               a(1) = (   1.000000   0.000000   0.000000 )  
               a(2) = (  -0.500000   0.866025   0.000000 )  
               a(3) = (   0.000000   0.000000   4.273504 )  

     reciprocal axes: (cart. coord. in units 2 pi/alat)
               b(1) = (  1.000000  0.577350 -0.000000 )  
               b(2) = (  0.000000  1.154701  0.000000 )  
               b(3) = (  0.000000 -0.000000  0.234000 )  


     PseudoPot. # 1 for Sn read from file:
     ../pseudo/Sn_pbe_v1.uspp.F.UPF
     MD5 check sum: 4cf58ce39ec5d5d420df3dd08604eb00
     Pseudo is Ultrasoft + core correction, Zval = 14.0
     Generated by new atomic code, or converted to UPF format
     Using radial grid of  891 points,  6 beta functions with: 
                l(1) =   0
                l(2) =   0
                l(3) =   1
                l(4) =   1
                l(5) =   2
                l(6) =   2
     Q(r) pseudized with  6 coefficients,  rinner =    1.200   1.200   1.200
                                                       1.200   1.200

     atomic species   valence    mass     pseudopotential
        Sn            14.00   118.71000     Sn( 1.00)

     24 Sym. Ops., with inversion, found



   Cartesian axes

     site n.     atom                  positions (alat units)
         1           Sn  tau(   1) = (   0.0000000   0.5773503   2.1367521  )
         2           Sn  tau(   2) = (   0.5000000   0.2886751   2.1367521  )

     number of k points=    24
                       cart. coord. in units 2pi/alat
        k(    1) = (   0.0000000   0.0000000   0.0000000), wk =   0.0102041
        k(    2) = (   0.0000000   0.0824786   0.0000000), wk =   0.0612245
        k(    3) = (   0.0000000   0.1649572   0.0000000), wk =   0.0612245
        k(    4) = (   0.0000000   0.2474358   0.0000000), wk =   0.0612245
        k(    5) = (   0.0000000   0.3299144   0.0000000), wk =   0.0612245
        k(    6) = (   0.0000000   0.4123930   0.0000000), wk =   0.0612245
        k(    7) = (   0.0000000   0.4948717   0.0000000), wk =   0.0612245
        k(    8) = (   0.0000000  -0.5773503   0.0000000), wk =   0.0306122
        k(    9) = (   0.0714286   0.1237179   0.0000000), wk =   0.0612245
        k(   10) = (   0.0714286   0.2061965   0.0000000), wk =   0.1224490
        k(   11) = (   0.0714286   0.2886751   0.0000000), wk =   0.1224490
        k(   12) = (   0.0714286   0.3711537   0.0000000), wk =   0.1224490
        k(   13) = (   0.0714286   0.4536324   0.0000000), wk =   0.1224490
        k(   14) = (   0.0714286   0.5361110   0.0000000), wk =   0.1224490
        k(   15) = (   0.1428571   0.2474358   0.0000000), wk =   0.0612245
        k(   16) = (   0.1428571   0.3299144   0.0000000), wk =   0.1224490
        k(   17) = (   0.1428571   0.4123930   0.0000000), wk =   0.1224490
        k(   18) = (   0.1428571   0.4948717   0.0000000), wk =   0.1224490
        k(   19) = (   0.1428571   0.5773503   0.0000000), wk =   0.0612245
        k(   20) = (   0.2142857   0.3711537   0.0000000), wk =   0.0612245
        k(   21) = (   0.2142857   0.4536324   0.0000000), wk =   0.1224490
        k(   22) = (   0.2142857   0.5361110   0.0000000), wk =   0.1224490
        k(   23) = (   0.2857143   0.4948717   0.0000000), wk =   0.0612245
        k(   24) = (   0.2857143   0.5773503   0.0000000), wk =   0.0612245

     Dense  grid:   160699 G-vectors     FFT dimensions: (  45,  45, 192)

     Estimated max dynamical RAM per process >     113.39 MB

     Estimated total dynamical RAM >     680.34 MB

     Initial potential from superposition of free atoms

     starting charge   25.99991, renormalised to   28.00000

     negative rho (up, down):  5.017E-03 0.000E+00
     Starting wfcs are   18 randomized atomic wfcs

     total cpu time spent up to now is        2.8 secs

     Self-consistent Calculation

     iteration #  1     ecut=    60.00 Ry     beta= 0.70
     Davidson diagonalization with overlap
     ethr =  1.00E-02,  avg # of iterations =  2.0

     negative rho (up, down):  3.312E-03 0.000E+00

     total cpu time spent up to now is        8.1 secs

     total energy              =    -325.49378591 Ry
     estimated scf accuracy    <       2.41403971 Ry

     iteration #  2     ecut=    60.00 Ry     beta= 0.70
     Davidson diagonalization with overlap
     ethr =  8.62E-03,  avg # of iterations =  2.0

     negative rho (up, down):  3.602E-03 0.000E+00

     total cpu time spent up to now is       13.5 secs

     total energy              =    -326.34776573 Ry
     estimated scf accuracy    <       0.29503879 Ry

     iteration #  3     ecut=    60.00 Ry     beta= 0.70
     Davidson diagonalization with overlap
     ethr =  1.05E-03,  avg # of iterations =  2.0

     negative rho (up, down):  3.778E-03 0.000E+00

     total cpu time spent up to now is       18.6 secs

     total energy              =    -326.38742233 Ry
     estimated scf accuracy    <       0.00613087 Ry

     iteration #  4     ecut=    60.00 Ry     beta= 0.70
     Davidson diagonalization with overlap
     ethr =  2.19E-05,  avg # of iterations =  3.0

     negative rho (up, down):  3.699E-03 0.000E+00

     total cpu time spent up to now is       24.1 secs

     total energy              =    -326.38998670 Ry
     estimated scf accuracy    <       0.00103655 Ry

     iteration #  5     ecut=    60.00 Ry     beta= 0.70
     Davidson diagonalization with overlap
     ethr =  3.70E-06,  avg # of iterations =  2.3

     negative rho (up, down):  3.679E-03 0.000E+00

     total cpu time spent up to now is       29.6 secs

     total energy              =    -326.39025762 Ry
     estimated scf accuracy    <       0.00001276 Ry

     iteration #  6     ecut=    60.00 Ry     beta= 0.70
     Davidson diagonalization with overlap
     ethr =  4.56E-08,  avg # of iterations =  5.0

     negative rho (up, down):  3.680E-03 0.000E+00

     total cpu time spent up to now is       36.6 secs

     total energy              =    -326.39050682 Ry
     estimated scf accuracy    <       0.00000331 Ry

     iteration #  7     ecut=    60.00 Ry     beta= 0.70
     Davidson diagonalization with overlap
     ethr =  1.18E-08,  avg # of iterations =  1.5

     negative rho (up, down):  3.680E-03 0.000E+00

     total cpu time spent up to now is       40.3 secs

     total energy              =    -326.39050537 Ry
     estimated scf accuracy    <       0.00000395 Ry

     iteration #  8     ecut=    60.00 Ry     beta= 0.70
     Davidson diagonalization with overlap
     ethr =  1.18E-08,  avg # of iterations =  2.0

     negative rho (up, down):  3.681E-03 0.000E+00

     total cpu time spent up to now is       45.6 secs

     End of self-consistent calculation

          k = 0.0000 0.0000 0.0000 ( 20001 PWs)   bands (ev):

   -24.2033 -24.2033 -24.2014 -24.0890 -24.0890 -23.9398 -23.9398 -23.8572
   -23.8572 -23.7922 -12.2917  -4.3433  -3.7567  -3.4332

          k = 0.0000 0.0825 0.0000 ( 19993 PWs)   bands (ev):

   -24.2162 -24.2157 -24.2008 -24.0901 -24.0870 -23.9274 -23.9256 -23.8595
   -23.8561 -23.7919 -12.2482  -4.6181  -4.2982  -3.5287

          k = 0.0000 0.1650 0.0000 ( 20063 PWs)   bands (ev):

   -24.2470 -24.2466 -24.1980 -24.0931 -24.0811 -23.8987 -23.8910 -23.8662
   -23.8531 -23.7901 -12.1181  -5.6121  -4.1639  -3.7660

          k = 0.0000 0.2474 0.0000 ( 20053 PWs)   bands (ev):

   -24.2833 -24.2831 -24.1939 -24.0974 -24.0721 -23.8765 -23.8693 -23.8496
   -23.8488 -23.7836 -11.9037  -6.5658  -4.0543  -3.9444

          k = 0.0000 0.3299 0.0000 ( 20087 PWs)   bands (ev):

   -24.3176 -24.3164 -24.1893 -24.1021 -24.0607 -23.8891 -23.8509 -23.8442
   -23.8103 -23.7686 -11.6108  -7.4508  -4.3251  -3.6481

          k = 0.0000 0.4124 0.0000 ( 20111 PWs)   bands (ev):

   -24.3446 -24.3425 -24.1850 -24.1061 -24.0489 -23.9022 -23.8441 -23.8402
   -23.7788 -23.7492 -11.2559  -8.2373  -4.5388  -3.2947

          k = 0.0000 0.4949 0.0000 ( 20141 PWs)   bands (ev):

   -24.3619 -24.3590 -24.1819 -24.1088 -24.0394 -23.9126 -23.8425 -23.8375
   -23.7586 -23.7343 -10.8927  -8.8628  -4.6739  -2.9401

          k = 0.0000-0.5774 0.0000 ( 20096 PWs)   bands (ev):

   -24.3678 -24.3646 -24.1808 -24.1097 -24.0355 -23.9167 -23.8423 -23.8366
   -23.7516 -23.7288 -10.7035  -9.1399  -4.7201  -2.7590

          k = 0.0714 0.1237 0.0000 ( 20005 PWs)   bands (ev):

   -24.2454 -24.2276 -24.2011 -24.0923 -24.0829 -23.9074 -23.9013 -23.8641
   -23.8539 -23.7908 -12.1613  -5.3422  -4.2085  -3.7210

          k = 0.0714 0.2062 0.0000 ( 20069 PWs)   bands (ev):

   -24.2846 -24.2524 -24.1990 -24.0962 -24.0752 -23.8785 -23.8729 -23.8655
   -23.8501 -23.7860 -11.9889  -6.2189  -4.0314  -4.0305

          k = 0.0714 0.2887 0.0000 ( 20086 PWs)   bands (ev):

   -24.3238 -24.2810 -24.1950 -24.1009 -24.0644 -23.8848 -23.8546 -23.8454
   -23.8307 -23.7718 -11.7345  -7.0902  -4.3486  -3.7726

          k = 0.0714 0.3712 0.0000 ( 20086 PWs)   bands (ev):

   -24.3570 -24.3063 -24.1906 -24.1055 -24.0521 -23.8984 -23.8438 -23.8409
   -23.8014 -23.7485 -11.4074  -7.9020  -4.6171  -3.4444

          k = 0.0714 0.4536 0.0000 ( 20124 PWs)   bands (ev):

   -24.3807 -24.3249 -24.1868 -24.1091 -24.0403 -23.9112 -23.8411 -23.8374
   -23.7798 -23.7267 -11.0358  -8.6056  -4.8073  -3.0780

          k = 0.0714 0.5361 0.0000 ( 20127 PWs)   bands (ev):

   -24.3931 -24.3345 -24.1847 -24.1110 -24.0327 -23.9194 -23.8409 -23.8355
   -23.7684 -23.7143 -10.7207  -9.0890  -4.9053  -2.7738

          k = 0.1429 0.2474 0.0000 ( 20103 PWs)   bands (ev):

   -24.3261 -24.2639 -24.2009 -24.1009 -24.0652 -23.8838 -23.8543 -23.8455
   -23.8415 -23.7716 -11.7760  -6.9415  -4.4254  -3.8145

          k = 0.1429 0.3299 0.0000 ( 20072 PWs)   bands (ev):

   -24.3639 -24.2788 -24.2001 -24.1060 -24.0523 -23.8978 -23.8405 -23.8381
   -23.8236 -23.7448 -11.4844  -7.6827  -4.7974  -3.5208

          k = 0.1429 0.4124 0.0000 ( 20108 PWs)   bands (ev):

   -24.3936 -24.2928 -24.1978 -24.1106 -24.0383 -23.9128 -23.8361 -23.8356
   -23.8046 -23.7171 -11.1288  -8.3838  -5.0821  -3.1677

          k = 0.1429 0.4949 0.0000 ( 20113 PWs)   bands (ev):

   -24.4124 -24.3024 -24.1956 -24.1136 -24.0262 -23.9256 -23.8363 -23.8332
   -23.7914 -23.6977 -10.7570  -8.9718  -5.2576  -2.8051

          k = 0.1429 0.5774 0.0000 ( 20103 PWs)   bands (ev):

   -24.4188 -24.3057 -24.1948 -24.1147 -24.0210 -23.9309 -23.8368 -23.8321
   -23.7868 -23.6909 -10.5544  -9.2479  -5.3167  -2.6112

          k = 0.2143 0.3712 0.0000 ( 20097 PWs)   bands (ev):

   -24.3980 -24.2776 -24.2054 -24.1113 -24.0371 -23.9138 -23.8355 -23.8269
   -23.8205 -23.7135 -11.1609  -8.2918  -5.2099  -3.1987

          k = 0.2143 0.4536 0.0000 ( 20125 PWs)   bands (ev):

   -24.4224 -24.2776 -24.2088 -24.1155 -24.0207 -23.9308 -23.8314 -23.8286
   -23.8099 -23.6885 -10.7840  -8.8737  -5.5044  -2.8286

          k = 0.2143 0.5361 0.0000 ( 20114 PWs)   bands (ev):

   -24.4352 -24.2780 -24.2102 -24.1178 -24.0081 -23.9438 -23.8305 -23.8292
   -23.8037 -23.6750 -10.4356  -9.3292  -5.6550  -2.4926

          k = 0.2857 0.4949 0.0000 ( 20109 PWs)   bands (ev):

   -24.4408 -24.2627 -24.2211 -24.1190 -24.0014 -23.9504 -23.8282 -23.8246
   -23.8134 -23.6694 -10.3937  -9.3506  -5.7831  -2.4496

          k = 0.2857 0.5774 0.0000 ( 20107 PWs)   bands (ev):

   -24.4471 -24.2543 -24.2286 -24.1203 -23.9885 -23.9635 -23.8270 -23.8237
   -23.8142 -23.6627 -10.1048  -9.6684  -5.8792  -2.1730

     highest occupied level (ev):    -2.1730

!    total energy              =    -326.39050572 Ry
     estimated scf accuracy    <       0.00000027 Ry

     The total energy is the sum of the following terms:
     one-electron contribution =    -882.70023394 Ry
     hartree contribution      =     448.39647373 Ry
     xc contribution           =     -95.06504924 Ry
     ewald contribution        =     202.97830373 Ry

     convergence has been achieved in   8 iterations

     Writing output data file ../tmp/stanene.save/

     init_run     :      2.55s CPU      2.69s WALL (       1 calls)
     electrons    :     41.13s CPU     42.81s WALL (       1 calls)

     Called by init_run:
     wfcinit      :      2.09s CPU      2.18s WALL (       1 calls)
     potinit      :      0.13s CPU      0.13s WALL (       1 calls)
     hinit0       :      0.20s CPU      0.20s WALL (       1 calls)

     Called by electrons:
     c_bands      :     34.54s CPU     35.70s WALL (       8 calls)
     sum_band     :      5.29s CPU      5.68s WALL (       8 calls)
     v_of_rho     :      0.47s CPU      0.49s WALL (       9 calls)
     newd         :      0.88s CPU      1.01s WALL (       9 calls)
     mix_rho      :      0.07s CPU      0.08s WALL (       8 calls)

     Called by c_bands:
     init_us_2    :      0.42s CPU      0.43s WALL (     408 calls)
     cegterg      :     33.01s CPU     34.15s WALL (     192 calls)

     Called by *egterg:
     cdiaghg      :      0.37s CPU      0.38s WALL (     667 calls)
     h_psi        :     23.00s CPU     24.17s WALL (     691 calls)
     s_psi        :      1.65s CPU      1.66s WALL (     691 calls)
     g_psi        :      0.15s CPU      0.15s WALL (     475 calls)

     Called by h_psi:
     h_psi:calbec :      2.74s CPU      2.83s WALL (     691 calls)
     vloc_psi     :     18.44s CPU     19.49s WALL (     691 calls)
     add_vuspsi   :      1.73s CPU      1.77s WALL (     691 calls)

     General routines
     calbec       :      3.67s CPU      3.80s WALL (     883 calls)
     fft          :      0.35s CPU      0.36s WALL (      99 calls)
     ffts         :      0.01s CPU      0.01s WALL (       8 calls)
     fftw         :     19.64s CPU     20.66s WALL (   19264 calls)

     Parallel routines
     fft_scatt_xy :      1.83s CPU      1.96s WALL (   19371 calls)
     fft_scatt_yz :     10.42s CPU     10.86s WALL (   19371 calls)

     PWSCF        :     43.80s CPU     45.73s WALL


   This run was terminated on:  21: 4:53  20Jan2024            

=------------------------------------------------------------------------------=
   JOB DONE.
=------------------------------------------------------------------------------=
