
     Program PWSCF v.6.7MaX starts on 20Jan2024 at 21: 6:44 

     This program is part of the open-source Quantum ESPRESSO suite
     for quantum simulation of materials; please cite
         "P. Giannozzi et al., J. Phys.:Condens. Matter 21 395502 (2009);
         "P. Giannozzi et al., J. Phys.:Condens. Matter 29 465901 (2017);
          URL http://www.quantum-espresso.org", 
     in publications or presentations arising from this work. More details at
     http://www.quantum-espresso.org/quote

     Parallel version (MPI), running on     6 processors

     MPI processes distributed on     1 nodes
     R & G space division:  proc/nbgrp/npool/nimage =       6
     Waiting for input...
     Reading input from standard input

     Current dimensions of program PWSCF are:
     Max number of different atomic species (ntypx) = 10
     Max number of k-points (npk) =  40000
     Max angular momentum in pseudopotentials (lmaxx) =  3

     Subspace diagonalization in iterative solution of the eigenvalue problem:
     one sub-group per band group will be used
     scalapack distributed-memory algorithm (size of sub-group:  2*  2 procs)


     Parallelization info
     --------------------
     sticks:   dense  smooth     PW     G-vecs:    dense   smooth      PW
     Min         214     214     60                26776    26776    3992
     Max         215     215     62                26799    26799    4003
     Sum        1285    1285    367               160699   160699   23973



     bravais-lattice index     =            4
     lattice parameter (alat)  =       8.8439  a.u.
     unit-cell volume          =    2560.0529 (a.u.)^3
     number of atoms/cell      =            2
     number of atomic types    =            1
     number of electrons       =        28.00
     number of Kohn-Sham states=           14
     kinetic-energy cutoff     =      60.0000  Ry
     charge density cutoff     =     240.0000  Ry
     scf convergence threshold =      1.0E-06
     mixing beta               =       0.7000
     number of iterations used =            8  plain     mixing
     Exchange-correlation= SLA  PW   PBE  PBE
                           (   1   4   3   4   0   0   0)

     celldm(1)=   8.843918  celldm(2)=   0.000000  celldm(3)=   4.273504
     celldm(4)=   0.000000  celldm(5)=   0.000000  celldm(6)=   0.000000

     crystal axes: (cart. coord. in units of alat)
               a(1) = (   1.000000   0.000000   0.000000 )  
               a(2) = (  -0.500000   0.866025   0.000000 )  
               a(3) = (   0.000000   0.000000   4.273504 )  

     reciprocal axes: (cart. coord. in units 2 pi/alat)
               b(1) = (  1.000000  0.577350 -0.000000 )  
               b(2) = (  0.000000  1.154701  0.000000 )  
               b(3) = (  0.000000 -0.000000  0.234000 )  


     PseudoPot. # 1 for Sn read from file:
     ../pseudo/Sn_pbe_v1.uspp.F.UPF
     MD5 check sum: 4cf58ce39ec5d5d420df3dd08604eb00
     Pseudo is Ultrasoft + core correction, Zval = 14.0
     Generated by new atomic code, or converted to UPF format
     Using radial grid of  891 points,  6 beta functions with: 
                l(1) =   0
                l(2) =   0
                l(3) =   1
                l(4) =   1
                l(5) =   2
                l(6) =   2
     Q(r) pseudized with  6 coefficients,  rinner =    1.200   1.200   1.200
                                                       1.200   1.200

     atomic species   valence    mass     pseudopotential
        Sn            14.00   118.71000     Sn( 1.00)

     24 Sym. Ops., with inversion, found



   Cartesian axes

     site n.     atom                  positions (alat units)
         1           Sn  tau(   1) = (   0.0000000   0.5773503   2.1367521  )
         2           Sn  tau(   2) = (   0.5000000   0.2886751   2.1367521  )

     number of k points=    33
                       cart. coord. in units 2pi/alat
        k(    1) = (   0.0000000   0.0000000   0.0000000), wk =   0.0069204
        k(    2) = (   0.0000000   0.0679236   0.0000000), wk =   0.0415225
        k(    3) = (   0.0000000   0.1358471   0.0000000), wk =   0.0415225
        k(    4) = (   0.0000000   0.2037707   0.0000000), wk =   0.0415225
        k(    5) = (   0.0000000   0.2716942   0.0000000), wk =   0.0415225
        k(    6) = (   0.0000000   0.3396178   0.0000000), wk =   0.0415225
        k(    7) = (   0.0000000   0.4075414   0.0000000), wk =   0.0415225
        k(    8) = (   0.0000000   0.4754649   0.0000000), wk =   0.0415225
        k(    9) = (   0.0000000   0.5433885   0.0000000), wk =   0.0415225
        k(   10) = (   0.0588235   0.1018853   0.0000000), wk =   0.0415225
        k(   11) = (   0.0588235   0.1698089   0.0000000), wk =   0.0830450
        k(   12) = (   0.0588235   0.2377325   0.0000000), wk =   0.0830450
        k(   13) = (   0.0588235   0.3056560   0.0000000), wk =   0.0830450
        k(   14) = (   0.0588235   0.3735796   0.0000000), wk =   0.0830450
        k(   15) = (   0.0588235   0.4415031   0.0000000), wk =   0.0830450
        k(   16) = (   0.0588235   0.5094267   0.0000000), wk =   0.0830450
        k(   17) = (   0.0588235   0.5773503   0.0000000), wk =   0.0415225
        k(   18) = (   0.1176471   0.2037707   0.0000000), wk =   0.0415225
        k(   19) = (   0.1176471   0.2716942   0.0000000), wk =   0.0830450
        k(   20) = (   0.1176471   0.3396178   0.0000000), wk =   0.0830450
        k(   21) = (   0.1176471   0.4075414   0.0000000), wk =   0.0830450
        k(   22) = (   0.1176471   0.4754649   0.0000000), wk =   0.0830450
        k(   23) = (   0.1176471   0.5433885   0.0000000), wk =   0.0830450
        k(   24) = (   0.1764706   0.3056560   0.0000000), wk =   0.0415225
        k(   25) = (   0.1764706   0.3735796   0.0000000), wk =   0.0830450
        k(   26) = (   0.1764706   0.4415031   0.0000000), wk =   0.0830450
        k(   27) = (   0.1764706   0.5094267   0.0000000), wk =   0.0830450
        k(   28) = (   0.1764706   0.5773503   0.0000000), wk =   0.0415225
        k(   29) = (   0.2352941   0.4075414   0.0000000), wk =   0.0415225
        k(   30) = (   0.2352941   0.4754649   0.0000000), wk =   0.0830450
        k(   31) = (   0.2352941   0.5433885   0.0000000), wk =   0.0830450
        k(   32) = (   0.2941176   0.5094267   0.0000000), wk =   0.0415225
        k(   33) = (   0.2941176   0.5773503   0.0000000), wk =   0.0415225

     Dense  grid:   160699 G-vectors     FFT dimensions: (  45,  45, 192)

     Estimated max dynamical RAM per process >     119.83 MB

     Estimated total dynamical RAM >     718.96 MB

     Initial potential from superposition of free atoms

     starting charge   25.99991, renormalised to   28.00000

     negative rho (up, down):  5.017E-03 0.000E+00
     Starting wfcs are   18 randomized atomic wfcs

     total cpu time spent up to now is        2.8 secs

     Self-consistent Calculation

     iteration #  1     ecut=    60.00 Ry     beta= 0.70
     Davidson diagonalization with overlap
     ethr =  1.00E-02,  avg # of iterations =  2.0

     negative rho (up, down):  3.311E-03 0.000E+00

     total cpu time spent up to now is        9.5 secs

     total energy              =    -325.49417161 Ry
     estimated scf accuracy    <       2.41358238 Ry

     iteration #  2     ecut=    60.00 Ry     beta= 0.70
     Davidson diagonalization with overlap
     ethr =  8.62E-03,  avg # of iterations =  2.0

     negative rho (up, down):  3.601E-03 0.000E+00

     total cpu time spent up to now is       16.6 secs

     total energy              =    -326.34785104 Ry
     estimated scf accuracy    <       0.29488170 Ry

     iteration #  3     ecut=    60.00 Ry     beta= 0.70
     Davidson diagonalization with overlap
     ethr =  1.05E-03,  avg # of iterations =  2.0

     negative rho (up, down):  3.777E-03 0.000E+00

     total cpu time spent up to now is       23.6 secs

     total energy              =    -326.38754370 Ry
     estimated scf accuracy    <       0.00611824 Ry

     iteration #  4     ecut=    60.00 Ry     beta= 0.70
     Davidson diagonalization with overlap
     ethr =  2.19E-05,  avg # of iterations =  3.0

     negative rho (up, down):  3.699E-03 0.000E+00

     total cpu time spent up to now is       31.8 secs

     total energy              =    -326.39010223 Ry
     estimated scf accuracy    <       0.00102199 Ry

     iteration #  5     ecut=    60.00 Ry     beta= 0.70
     Davidson diagonalization with overlap
     ethr =  3.65E-06,  avg # of iterations =  2.3

     negative rho (up, down):  3.680E-03 0.000E+00

     total cpu time spent up to now is       38.9 secs

     total energy              =    -326.39037004 Ry
     estimated scf accuracy    <       0.00001342 Ry

     iteration #  6     ecut=    60.00 Ry     beta= 0.70
     Davidson diagonalization with overlap
     ethr =  4.79E-08,  avg # of iterations =  4.7

     negative rho (up, down):  3.680E-03 0.000E+00

     total cpu time spent up to now is       47.0 secs

     total energy              =    -326.39054093 Ry
     estimated scf accuracy    <       0.00000167 Ry

     iteration #  7     ecut=    60.00 Ry     beta= 0.70
     Davidson diagonalization with overlap
     ethr =  5.95E-09,  avg # of iterations =  2.5

     negative rho (up, down):  3.679E-03 0.000E+00

     total cpu time spent up to now is       52.3 secs

     total energy              =    -326.39054040 Ry
     estimated scf accuracy    <       0.00000179 Ry

     iteration #  8     ecut=    60.00 Ry     beta= 0.70
     Davidson diagonalization with overlap
     ethr =  5.95E-09,  avg # of iterations =  2.1

     negative rho (up, down):  3.681E-03 0.000E+00

     total cpu time spent up to now is       60.3 secs

     End of self-consistent calculation

          k = 0.0000 0.0000 0.0000 ( 20001 PWs)   bands (ev):

   -24.2044 -24.2044 -24.2031 -24.0906 -24.0906 -23.9409 -23.9409 -23.8588
   -23.8588 -23.7940 -12.2925  -4.3442  -3.7577  -3.4338

          k = 0.0000 0.0679 0.0000 ( 19993 PWs)   bands (ev):

   -24.2133 -24.2130 -24.2027 -24.0913 -24.0892 -23.9323 -23.9311 -23.8604
   -23.8581 -23.7938 -12.2629  -4.4429  -4.3136  -3.4997

          k = 0.0000 0.1358 0.0000 ( 20029 PWs)   bands (ev):

   -24.2361 -24.2357 -24.2008 -24.0935 -24.0852 -23.9109 -23.9057 -23.8650
   -23.8559 -23.7928 -12.1746  -5.2648  -4.2222  -3.6725

          k = 0.0000 0.2038 0.0000 ( 20065 PWs)   bands (ev):

   -24.2651 -24.2650 -24.1978 -24.0967 -24.0788 -23.8853 -23.8728 -23.8722
   -23.8528 -23.7896 -12.0283  -6.0686  -4.0718  -3.9009

          k = 0.0000 0.2717 0.0000 ( 20061 PWs)   bands (ev):

   -24.2951 -24.2946 -24.1941 -24.1004 -24.0705 -23.8816 -23.8638 -23.8490
   -23.8386 -23.7817 -11.8261  -6.8351  -4.1386  -3.8656

          k = 0.0000 0.3396 0.0000 ( 20085 PWs)   bands (ev):

   -24.3224 -24.3210 -24.1903 -24.1042 -24.0609 -23.8923 -23.8511 -23.8453
   -23.8072 -23.7678 -11.5726  -7.5500  -4.3543  -3.6098

          k = 0.0000 0.4075 0.0000 ( 20115 PWs)   bands (ev):

   -24.3445 -24.3423 -24.1867 -24.1075 -24.0512 -23.9030 -23.8459 -23.8420
   -23.7815 -23.7517 -11.2786  -8.1953  -4.5288  -3.3173

          k = 0.0000 0.4755 0.0000 ( 20127 PWs)   bands (ev):

   -24.3600 -24.3572 -24.1840 -24.1099 -24.0428 -23.9122 -23.8443 -23.8396
   -23.7633 -23.7384 -10.9734  -8.7374  -4.6505  -3.0183

          k = 0.0000 0.5434 0.0000 ( 20118 PWs)   bands (ev):

   -24.3679 -24.3648 -24.1826 -24.1112 -24.0378 -23.9175 -23.8440 -23.8383
   -23.7539 -23.7311 -10.7411  -9.0889  -4.7128  -2.7949

          k = 0.0588 0.1019 0.0000 ( 19991 PWs)   bands (ev):

   -24.2343 -24.2220 -24.2029 -24.0928 -24.0865 -23.9176 -23.9134 -23.8635
   -23.8566 -23.7932 -12.2040  -5.0421  -4.2526  -3.6322

          k = 0.0588 0.1698 0.0000 ( 20054 PWs)   bands (ev):

   -24.2645 -24.2418 -24.2013 -24.0956 -24.0811 -23.8944 -23.8850 -23.8696
   -23.8538 -23.7910 -12.0866  -5.7785  -4.1316  -3.8593

          k = 0.0588 0.2377 0.0000 ( 20072 PWs)   bands (ev):

   -24.2973 -24.2666 -24.1983 -24.0992 -24.0735 -23.8781 -23.8707 -23.8537
   -23.8502 -23.7845 -11.9121  -6.5249  -4.1174  -3.9531

          k = 0.0588 0.3057 0.0000 ( 20077 PWs)   bands (ev):

   -24.3282 -24.2911 -24.1946 -24.1032 -24.0643 -23.8885 -23.8539 -23.8464
   -23.8245 -23.7709 -11.6836  -7.2434  -4.3637  -3.7214

          k = 0.0588 0.3736 0.0000 ( 20100 PWs)   bands (ev):

   -24.3545 -24.3124 -24.1909 -24.1068 -24.0541 -23.8996 -23.8460 -23.8427
   -23.7996 -23.7521 -11.4079  -7.9114  -4.5727  -3.4452

          k = 0.0588 0.4415 0.0000 ( 20114 PWs)   bands (ev):

   -24.3744 -24.3287 -24.1877 -24.1098 -24.0445 -23.9101 -23.8435 -23.8398
   -23.7806 -23.7342 -11.1021  -8.5028  -4.7299  -3.1432

          k = 0.0588 0.5094 0.0000 ( 20110 PWs)   bands (ev):

   -24.3868 -24.3389 -24.1856 -24.1117 -24.0372 -23.9179 -23.8430 -23.8379
   -23.7686 -23.7221 -10.8153  -8.9629  -4.8270  -2.8649

          k = 0.0588 0.5774 0.0000 ( 20130 PWs)   bands (ev):

   -24.3910 -24.3423 -24.1849 -24.1124 -24.0344 -23.9209 -23.8430 -23.8372
   -23.7645 -23.7178 -10.6790  -9.1573  -4.8598  -2.7348

          k = 0.1176 0.2038 0.0000 ( 20057 PWs)   bands (ev):

   -24.2981 -24.2538 -24.2023 -24.0990 -24.0744 -23.8771 -23.8731 -23.8599
   -23.8505 -23.7849 -11.9409  -6.4025  -4.1506  -3.9824

          k = 0.1176 0.2717 0.0000 ( 20086 PWs)   bands (ev):

   -24.3316 -24.2698 -24.2012 -24.1031 -24.0653 -23.8871 -23.8534 -23.8465
   -23.8384 -23.7705 -11.7395  -7.0552  -4.4564  -3.7776

          k = 0.1176 0.3396 0.0000 ( 20096 PWs)   bands (ev):

   -24.3614 -24.2865 -24.1987 -24.1072 -24.0548 -23.8986 -23.8427 -23.8425
   -23.8193 -23.7487 -11.4866  -7.6959  -4.7276  -3.5232

          k = 0.1176 0.4075 0.0000 ( 20118 PWs)   bands (ev):

   -24.3855 -24.3009 -24.1958 -24.1108 -24.0437 -23.9105 -23.8399 -23.8390
   -23.8019 -23.7267 -11.1921  -8.2945  -4.9416  -3.2307

          k = 0.1176 0.4755 0.0000 ( 20107 PWs)   bands (ev):

   -24.4023 -24.3113 -24.1935 -24.1134 -24.0339 -23.9209 -23.8398 -23.8364
   -23.7891 -23.7097 -10.8831  -8.8122  -5.0882  -2.9283

          k = 0.1176 0.5434 0.0000 ( 20121 PWs)   bands (ev):

   -24.4109 -24.3167 -24.1922 -24.1148 -24.0278 -23.9274 -23.8401 -23.8351
   -23.7823 -23.7007 -10.6422  -9.1590  -5.1625  -2.6967

          k = 0.1765 0.3057 0.0000 ( 20081 PWs)   bands (ev):

   -24.3638 -24.2752 -24.2036 -24.1074 -24.0547 -23.8985 -23.8423 -23.8363
   -23.8319 -23.7474 -11.5130  -7.6124  -4.8048  -3.5495

          k = 0.1765 0.3736 0.0000 ( 20091 PWs)   bands (ev):

   -24.3912 -24.2817 -24.2044 -24.1116 -24.0426 -23.9113 -23.8383 -23.8326
   -23.8193 -23.7223 -11.2384  -8.1660  -5.1014  -3.2757

          k = 0.1765 0.4415 0.0000 ( 20099 PWs)   bands (ev):

   -24.4119 -24.2878 -24.2040 -24.1150 -24.0303 -23.9243 -23.8350 -23.8339
   -23.8070 -23.7014 -10.9296  -8.6856  -5.3212  -2.9717

          k = 0.1765 0.5094 0.0000 ( 20128 PWs)   bands (ev):

   -24.4249 -24.2920 -24.2034 -24.1172 -24.0202 -23.9348 -23.8352 -23.8329
   -23.7991 -23.6877 -10.6290  -9.1173  -5.4549  -2.6803

          k = 0.1765 0.5774 0.0000 ( 20121 PWs)   bands (ev):

   -24.4292 -24.2936 -24.2031 -24.1180 -24.0160 -23.9391 -23.8358 -23.8322
   -23.7963 -23.6830 -10.4766  -9.3142  -5.4998  -2.5348

          k = 0.2353 0.4075 0.0000 ( 20111 PWs)   bands (ev):

   -24.4152 -24.2773 -24.2100 -24.1157 -24.0288 -23.9257 -23.8345 -23.8279
   -23.8172 -23.6984 -10.9460  -8.6352  -5.4123  -2.9870

          k = 0.2353 0.4755 0.0000 ( 20131 PWs)   bands (ev):

   -24.4321 -24.2739 -24.2143 -24.1187 -24.0148 -23.9401 -23.8316 -23.8289
   -23.8119 -23.6809 -10.6274  -9.0774  -5.6289  -2.6762

          k = 0.2353 0.5434 0.0000 ( 20117 PWs)   bands (ev):

   -24.4407 -24.2721 -24.2167 -24.1203 -24.0043 -23.9508 -23.8301 -23.8300
   -23.8086 -23.6717 -10.3504  -9.4181  -5.7390  -2.4100

          k = 0.2941 0.5094 0.0000 ( 20103 PWs)   bands (ev):

   -24.4446 -24.2607 -24.2254 -24.1212 -23.9986 -23.9565 -23.8293 -23.8256
   -23.8154 -23.6677 -10.3016  -9.4560  -5.8251  -2.3612

          k = 0.2941 0.5774 0.0000 ( 20095 PWs)   bands (ev):

   -24.4488 -24.2531 -24.2322 -24.1220 -23.9879 -23.9672 -23.8285 -23.8244
   -23.8167 -23.6632 -10.0697  -9.7054  -5.8921  -2.1395

     highest occupied level (ev):    -2.1395

!    total energy              =    -326.39054046 Ry
     estimated scf accuracy    <       0.00000050 Ry

     The total energy is the sum of the following terms:
     one-electron contribution =    -882.70069169 Ry
     hartree contribution      =     448.39688624 Ry
     xc contribution           =     -95.06503875 Ry
     ewald contribution        =     202.97830373 Ry

     convergence has been achieved in   8 iterations

     Writing output data file ../tmp/stanene.save/

     init_run     :      2.57s CPU      2.68s WALL (       1 calls)
     electrons    :     55.15s CPU     57.50s WALL (       1 calls)

     Called by init_run:
     wfcinit      :      2.18s CPU      2.26s WALL (       1 calls)
     potinit      :      0.10s CPU      0.11s WALL (       1 calls)
     hinit0       :      0.17s CPU      0.17s WALL (       1 calls)

     Called by electrons:
     c_bands      :     47.67s CPU     49.22s WALL (       8 calls)
     sum_band     :      6.28s CPU      6.83s WALL (       8 calls)
     v_of_rho     :      0.48s CPU      0.49s WALL (       9 calls)
     newd         :      0.73s CPU      0.95s WALL (       9 calls)
     mix_rho      :      0.08s CPU      0.09s WALL (       8 calls)

     Called by c_bands:
     init_us_2    :      0.57s CPU      0.57s WALL (     561 calls)
     cegterg      :     45.58s CPU     47.13s WALL (     264 calls)

     Called by *egterg:
     cdiaghg      :      0.50s CPU      0.50s WALL (     945 calls)
     h_psi        :     30.97s CPU     32.53s WALL (     978 calls)
     s_psi        :      2.23s CPU      2.26s WALL (     978 calls)
     g_psi        :      0.20s CPU      0.20s WALL (     681 calls)

     Called by h_psi:
     h_psi:calbec :      3.77s CPU      3.92s WALL (     978 calls)
     vloc_psi     :     24.78s CPU     26.14s WALL (     978 calls)
     add_vuspsi   :      2.31s CPU      2.36s WALL (     978 calls)

     General routines
     calbec       :      4.94s CPU      5.13s WALL (    1242 calls)
     fft          :      0.33s CPU      0.34s WALL (      99 calls)
     ffts         :      0.01s CPU      0.01s WALL (       8 calls)
     fftw         :     26.07s CPU     27.43s WALL (   26408 calls)

     Parallel routines
     fft_scatt_xy :      2.41s CPU      2.60s WALL (   26515 calls)
     fft_scatt_yz :     13.75s CPU     14.25s WALL (   26515 calls)

     PWSCF        :     57.87s CPU   1m 0.46s WALL


   This run was terminated on:  21: 7:44  20Jan2024            

=------------------------------------------------------------------------------=
   JOB DONE.
=------------------------------------------------------------------------------=
