
     Program PWSCF v.6.7MaX starts on 20Jan2024 at 21: 8:50 

     This program is part of the open-source Quantum ESPRESSO suite
     for quantum simulation of materials; please cite
         "P. Giannozzi et al., J. Phys.:Condens. Matter 21 395502 (2009);
         "P. Giannozzi et al., J. Phys.:Condens. Matter 29 465901 (2017);
          URL http://www.quantum-espresso.org", 
     in publications or presentations arising from this work. More details at
     http://www.quantum-espresso.org/quote

     Parallel version (MPI), running on     6 processors

     MPI processes distributed on     1 nodes
     R & G space division:  proc/nbgrp/npool/nimage =       6
     Waiting for input...
     Reading input from standard input

     Current dimensions of program PWSCF are:
     Max number of different atomic species (ntypx) = 10
     Max number of k-points (npk) =  40000
     Max angular momentum in pseudopotentials (lmaxx) =  3

     Subspace diagonalization in iterative solution of the eigenvalue problem:
     one sub-group per band group will be used
     scalapack distributed-memory algorithm (size of sub-group:  2*  2 procs)


     Parallelization info
     --------------------
     sticks:   dense  smooth     PW     G-vecs:    dense   smooth      PW
     Min         214     214     60                26776    26776    3972
     Max         215     215     61                26799    26799    3987
     Sum        1285    1285    361               160699   160699   23859



     bravais-lattice index     =            4
     lattice parameter (alat)  =       8.8439  a.u.
     unit-cell volume          =    2560.0529 (a.u.)^3
     number of atoms/cell      =            2
     number of atomic types    =            1
     number of electrons       =        28.00
     number of Kohn-Sham states=           14
     kinetic-energy cutoff     =      60.0000  Ry
     charge density cutoff     =     240.0000  Ry
     scf convergence threshold =      1.0E-06
     mixing beta               =       0.7000
     number of iterations used =            8  plain     mixing
     Exchange-correlation= SLA  PW   PBE  PBE
                           (   1   4   3   4   0   0   0)

     celldm(1)=   8.843918  celldm(2)=   0.000000  celldm(3)=   4.273504
     celldm(4)=   0.000000  celldm(5)=   0.000000  celldm(6)=   0.000000

     crystal axes: (cart. coord. in units of alat)
               a(1) = (   1.000000   0.000000   0.000000 )  
               a(2) = (  -0.500000   0.866025   0.000000 )  
               a(3) = (   0.000000   0.000000   4.273504 )  

     reciprocal axes: (cart. coord. in units 2 pi/alat)
               b(1) = (  1.000000  0.577350 -0.000000 )  
               b(2) = (  0.000000  1.154701  0.000000 )  
               b(3) = (  0.000000 -0.000000  0.234000 )  


     PseudoPot. # 1 for Sn read from file:
     ../pseudo/Sn_pbe_v1.uspp.F.UPF
     MD5 check sum: 4cf58ce39ec5d5d420df3dd08604eb00
     Pseudo is Ultrasoft + core correction, Zval = 14.0
     Generated by new atomic code, or converted to UPF format
     Using radial grid of  891 points,  6 beta functions with: 
                l(1) =   0
                l(2) =   0
                l(3) =   1
                l(4) =   1
                l(5) =   2
                l(6) =   2
     Q(r) pseudized with  6 coefficients,  rinner =    1.200   1.200   1.200
                                                       1.200   1.200

     atomic species   valence    mass     pseudopotential
        Sn            14.00   118.71000     Sn( 1.00)

     24 Sym. Ops., with inversion, found



   Cartesian axes

     site n.     atom                  positions (alat units)
         1           Sn  tau(   1) = (   0.0000000   0.5773503   2.1367521  )
         2           Sn  tau(   2) = (   0.5000000   0.2886751   2.1367521  )

     number of k points=    40
                       cart. coord. in units 2pi/alat
        k(    1) = (   0.0000000   0.0000000   0.0000000), wk =   0.0055402
        k(    2) = (   0.0000000   0.0607737   0.0000000), wk =   0.0332410
        k(    3) = (   0.0000000   0.1215474   0.0000000), wk =   0.0332410
        k(    4) = (   0.0000000   0.1823211   0.0000000), wk =   0.0332410
        k(    5) = (   0.0000000   0.2430949   0.0000000), wk =   0.0332410
        k(    6) = (   0.0000000   0.3038686   0.0000000), wk =   0.0332410
        k(    7) = (   0.0000000   0.3646423   0.0000000), wk =   0.0332410
        k(    8) = (   0.0000000   0.4254160   0.0000000), wk =   0.0332410
        k(    9) = (   0.0000000   0.4861897   0.0000000), wk =   0.0332410
        k(   10) = (   0.0000000   0.5469634   0.0000000), wk =   0.0332410
        k(   11) = (   0.0526316   0.0911606   0.0000000), wk =   0.0332410
        k(   12) = (   0.0526316   0.1519343   0.0000000), wk =   0.0664820
        k(   13) = (   0.0526316   0.2127080   0.0000000), wk =   0.0664820
        k(   14) = (   0.0526316   0.2734817   0.0000000), wk =   0.0664820
        k(   15) = (   0.0526316   0.3342554   0.0000000), wk =   0.0664820
        k(   16) = (   0.0526316   0.3950291   0.0000000), wk =   0.0664820
        k(   17) = (   0.0526316   0.4558028   0.0000000), wk =   0.0664820
        k(   18) = (   0.0526316   0.5165766   0.0000000), wk =   0.0664820
        k(   19) = (   0.0526316   0.5773503   0.0000000), wk =   0.0332410
        k(   20) = (   0.1052632   0.1823211   0.0000000), wk =   0.0332410
        k(   21) = (   0.1052632   0.2430949   0.0000000), wk =   0.0664820
        k(   22) = (   0.1052632   0.3038686   0.0000000), wk =   0.0664820
        k(   23) = (   0.1052632   0.3646423   0.0000000), wk =   0.0664820
        k(   24) = (   0.1052632   0.4254160   0.0000000), wk =   0.0664820
        k(   25) = (   0.1052632   0.4861897   0.0000000), wk =   0.0664820
        k(   26) = (   0.1052632   0.5469634   0.0000000), wk =   0.0664820
        k(   27) = (   0.1578947   0.2734817   0.0000000), wk =   0.0332410
        k(   28) = (   0.1578947   0.3342554   0.0000000), wk =   0.0664820
        k(   29) = (   0.1578947   0.3950291   0.0000000), wk =   0.0664820
        k(   30) = (   0.1578947   0.4558028   0.0000000), wk =   0.0664820
        k(   31) = (   0.1578947   0.5165766   0.0000000), wk =   0.0664820
        k(   32) = (   0.1578947   0.5773503   0.0000000), wk =   0.0332410
        k(   33) = (   0.2105263   0.3646423   0.0000000), wk =   0.0332410
        k(   34) = (   0.2105263   0.4254160   0.0000000), wk =   0.0664820
        k(   35) = (   0.2105263   0.4861897   0.0000000), wk =   0.0664820
        k(   36) = (   0.2105263   0.5469634   0.0000000), wk =   0.0664820
        k(   37) = (   0.2631579   0.4558028   0.0000000), wk =   0.0332410
        k(   38) = (   0.2631579   0.5165766   0.0000000), wk =   0.0664820
        k(   39) = (   0.2631579   0.5773503   0.0000000), wk =   0.0332410
        k(   40) = (   0.3157895   0.5469634   0.0000000), wk =   0.0332410

     Dense  grid:   160699 G-vectors     FFT dimensions: (  45,  45, 192)

     Estimated max dynamical RAM per process >     124.83 MB

     Estimated total dynamical RAM >     749.00 MB

     Initial potential from superposition of free atoms

     starting charge   25.99991, renormalised to   28.00000

     negative rho (up, down):  5.017E-03 0.000E+00
     Starting wfcs are   18 randomized atomic wfcs

     total cpu time spent up to now is        3.3 secs

     Self-consistent Calculation

     iteration #  1     ecut=    60.00 Ry     beta= 0.70
     Davidson diagonalization with overlap
     ethr =  1.00E-02,  avg # of iterations =  2.0

     negative rho (up, down):  3.306E-03 0.000E+00

     total cpu time spent up to now is       11.4 secs

     total energy              =    -325.49364301 Ry
     estimated scf accuracy    <       2.41430303 Ry

     iteration #  2     ecut=    60.00 Ry     beta= 0.70
     Davidson diagonalization with overlap
     ethr =  8.62E-03,  avg # of iterations =  2.0

     negative rho (up, down):  3.598E-03 0.000E+00

     total cpu time spent up to now is       20.0 secs

     total energy              =    -326.34784812 Ry
     estimated scf accuracy    <       0.29518947 Ry

     iteration #  3     ecut=    60.00 Ry     beta= 0.70
     Davidson diagonalization with overlap
     ethr =  1.05E-03,  avg # of iterations =  2.0

     negative rho (up, down):  3.777E-03 0.000E+00

     total cpu time spent up to now is       29.3 secs

     total energy              =    -326.38756832 Ry
     estimated scf accuracy    <       0.00613273 Ry

     iteration #  4     ecut=    60.00 Ry     beta= 0.70
     Davidson diagonalization with overlap
     ethr =  2.19E-05,  avg # of iterations =  3.1

     negative rho (up, down):  3.698E-03 0.000E+00

     total cpu time spent up to now is       37.9 secs

     total energy              =    -326.39015162 Ry
     estimated scf accuracy    <       0.00102329 Ry

     iteration #  5     ecut=    60.00 Ry     beta= 0.70
     Davidson diagonalization with overlap
     ethr =  3.65E-06,  avg # of iterations =  2.3

     negative rho (up, down):  3.679E-03 0.000E+00

     total cpu time spent up to now is       46.1 secs

     total energy              =    -326.39042052 Ry
     estimated scf accuracy    <       0.00001391 Ry

     iteration #  6     ecut=    60.00 Ry     beta= 0.70
     Davidson diagonalization with overlap
     ethr =  4.97E-08,  avg # of iterations =  4.8

     negative rho (up, down):  3.679E-03 0.000E+00

     total cpu time spent up to now is       55.8 secs

     total energy              =    -326.39055804 Ry
     estimated scf accuracy    <       0.00000125 Ry

     iteration #  7     ecut=    60.00 Ry     beta= 0.70
     Davidson diagonalization with overlap
     ethr =  4.45E-09,  avg # of iterations =  2.8

     negative rho (up, down):  3.678E-03 0.000E+00

     total cpu time spent up to now is       62.5 secs

     total energy              =    -326.39055788 Ry
     estimated scf accuracy    <       0.00000121 Ry

     iteration #  8     ecut=    60.00 Ry     beta= 0.70
     Davidson diagonalization with overlap
     ethr =  4.33E-09,  avg # of iterations =  1.0

     negative rho (up, down):  3.681E-03 0.000E+00

     total cpu time spent up to now is       68.4 secs

     End of self-consistent calculation

          k = 0.0000 0.0000 0.0000 ( 20001 PWs)   bands (ev):

   -24.2086 -24.2086 -24.2077 -24.0951 -24.0951 -23.9452 -23.9452 -23.8634
   -23.8634 -23.7987 -12.2943  -4.3456  -3.7599  -3.4355

          k = 0.0000 0.0608 0.0000 ( 20009 PWs)   bands (ev):

   -24.2159 -24.2156 -24.2074 -24.0957 -24.0940 -23.9383 -23.9372 -23.8647
   -23.8628 -23.7986 -12.2706  -4.3587  -4.3210  -3.4886

          k = 0.0000 0.1215 0.0000 ( 20007 PWs)   bands (ev):

   -24.2348 -24.2344 -24.2058 -24.0975 -24.0908 -23.9204 -23.9162 -23.8684
   -23.8611 -23.7979 -12.1998  -5.0944  -4.2478  -3.6314

          k = 0.0000 0.1823 0.0000 ( 20069 PWs)   bands (ev):

   -24.2599 -24.2597 -24.2033 -24.1001 -24.0856 -23.8976 -23.8879 -23.8743
   -23.8585 -23.7957 -12.0824  -5.8200  -4.1268  -3.8275

          k = 0.0000 0.2431 0.0000 ( 20051 PWs)   bands (ev):

   -24.2869 -24.2866 -24.2002 -24.1034 -24.0788 -23.8821 -23.8763 -23.8572
   -23.8552 -23.7904 -11.9196  -6.5197  -4.0413  -3.9602

          k = 0.0000 0.3039 0.0000 ( 20063 PWs)   bands (ev):

   -24.3128 -24.3118 -24.1968 -24.1068 -24.0706 -23.8912 -23.8611 -23.8518
   -23.8275 -23.7803 -11.7137  -7.1830  -4.2465  -3.7514

          k = 0.0000 0.3646 0.0000 ( 20093 PWs)   bands (ev):

   -24.3355 -24.3338 -24.1934 -24.1100 -24.0619 -23.9009 -23.8531 -23.8486
   -23.8013 -23.7664 -11.4698  -7.7989  -4.4257  -3.5067

          k = 0.0000 0.4254 0.0000 ( 20139 PWs)   bands (ev):

   -24.3535 -24.3511 -24.1905 -24.1127 -24.0533 -23.9103 -23.8498 -23.8459
   -23.7802 -23.7522 -11.1992  -8.3520  -4.5678  -3.2386

          k = 0.0000 0.4862 0.0000 ( 20121 PWs)   bands (ev):

   -24.3660 -24.3631 -24.1882 -24.1147 -24.0463 -23.9179 -23.8488 -23.8439
   -23.7656 -23.7412 -10.9302  -8.8109  -4.6659  -2.9761

          k = 0.0000 0.5470 0.0000 ( 20112 PWs)   bands (ev):

   -24.3724 -24.3692 -24.1871 -24.1157 -24.0422 -23.9223 -23.8486 -23.8429
   -23.7580 -23.7353 -10.7358  -9.1008  -4.7159  -2.7895

          k = 0.0526 0.0912 0.0000 ( 19989 PWs)   bands (ev):

   -24.2331 -24.2231 -24.2075 -24.0969 -24.0918 -23.9260 -23.9227 -23.8672
   -23.8616 -23.7982 -12.2234  -4.8951  -4.2721  -3.5953

          k = 0.0526 0.1519 0.0000 ( 20038 PWs)   bands (ev):

   -24.2588 -24.2402 -24.2062 -24.0992 -24.0876 -23.9060 -23.8984 -23.8721
   -23.8594 -23.7967 -12.1293  -5.5590  -4.1750  -3.7835

          k = 0.0526 0.2127 0.0000 ( 20065 PWs)   bands (ev):

   -24.2877 -24.2624 -24.2037 -24.1023 -24.0814 -23.8839 -23.8791 -23.8701
   -23.8564 -23.7925 -11.9891  -6.2377  -4.0311  -4.0075

          k = 0.0526 0.2735 0.0000 ( 20082 PWs)   bands (ev):

   -24.3163 -24.2854 -24.2005 -24.1057 -24.0737 -23.8877 -23.8656 -23.8530
   -23.8422 -23.7835 -11.8044  -6.8992  -4.2328  -3.8431

          k = 0.0526 0.3343 0.0000 ( 20080 PWs)   bands (ev):

   -24.3421 -24.3067 -24.1970 -24.1091 -24.0649 -23.8974 -23.8546 -23.8495
   -23.8171 -23.7688 -11.5787  -7.5266  -4.4370  -3.6155

          k = 0.0526 0.3950 0.0000 ( 20096 PWs)   bands (ev):

   -24.3636 -24.3246 -24.1938 -24.1122 -24.0559 -23.9073 -23.8497 -23.8465
   -23.7961 -23.7519 -11.3193  -8.1048  -4.6063  -3.3569

          k = 0.0526 0.4558 0.0000 ( 20120 PWs)   bands (ev):

   -24.3796 -24.3381 -24.1912 -24.1147 -24.0477 -23.9162 -23.8482 -23.8441
   -23.7803 -23.7372 -11.0436  -8.6114  -4.7321  -3.0858

          k = 0.0526 0.5166 0.0000 ( 20113 PWs)   bands (ev):

   -24.3895 -24.3464 -24.1895 -24.1162 -24.0418 -23.9226 -23.8478 -23.8426
   -23.7705 -23.7275 -10.7972  -8.9976  -4.8094  -2.8474

          k = 0.0526 0.5774 0.0000 ( 20138 PWs)   bands (ev):

   -24.3928 -24.3492 -24.1889 -24.1167 -24.0395 -23.9250 -23.8478 -23.8420
   -23.7671 -23.7241 -10.6859  -9.1557  -4.8354  -2.7413

          k = 0.1053 0.1823 0.0000 ( 20041 PWs)   bands (ev):

   -24.2880 -24.2516 -24.2069 -24.1020 -24.0821 -23.8868 -23.8782 -23.8750
   -23.8566 -23.7929 -12.0123  -6.1286  -4.0549  -4.0249

          k = 0.1053 0.2431 0.0000 ( 20072 PWs)   bands (ev):

   -24.3183 -24.2673 -24.2058 -24.1055 -24.0748 -23.8863 -23.8674 -23.8533
   -23.8524 -23.7839 -11.8500  -6.7295  -4.2911  -3.8893

          k = 0.1053 0.3039 0.0000 ( 20101 PWs)   bands (ev):

   -24.3467 -24.2841 -24.2034 -24.1091 -24.0660 -23.8959 -23.8533 -23.8497
   -23.8329 -23.7677 -11.6446  -7.3269  -4.5419  -3.6815

          k = 0.1053 0.3646 0.0000 ( 20087 PWs)   bands (ev):

   -24.3713 -24.2998 -24.2006 -24.1126 -24.0564 -23.9064 -23.8471 -23.8463
   -23.8149 -23.7479 -11.4009  -7.8986  -4.7562  -3.4374

          k = 0.1053 0.4254 0.0000 ( 20122 PWs)   bands (ev):

   -24.3908 -24.3126 -24.1979 -24.1155 -24.0469 -23.9166 -23.8454 -23.8434
   -23.7996 -23.7295 -11.1294  -8.4237  -4.9233  -3.1688

          k = 0.1053 0.4862 0.0000 ( 20113 PWs)   bands (ev):

   -24.4043 -24.3216 -24.1959 -24.1177 -24.0389 -23.9252 -23.8453 -23.8413
   -23.7888 -23.7158 -10.8569  -8.8685  -5.0371  -2.9031

          k = 0.1053 0.5470 0.0000 ( 20136 PWs)   bands (ev):

   -24.4112 -24.3263 -24.1948 -24.1188 -24.0341 -23.9303 -23.8455 -23.8402
   -23.7831 -23.7086 -10.6563  -9.1562  -5.0947  -2.7105

          k = 0.1579 0.2735 0.0000 ( 20095 PWs)   bands (ev):

   -24.3482 -24.2746 -24.2073 -24.1092 -24.0662 -23.8956 -23.8506 -23.8496
   -23.8410 -23.7671 -11.6667  -7.2513  -4.5970  -3.7036

          k = 0.1579 0.3343 0.0000 ( 20070 PWs)   bands (ev):

   -24.3753 -24.2833 -24.2074 -24.1131 -24.0562 -23.9063 -23.8459 -23.8410
   -23.8302 -23.7454 -11.4421  -7.7764  -4.8752  -3.4781

          k = 0.1579 0.3950 0.0000 ( 20087 PWs)   bands (ev):

   -24.3978 -24.2919 -24.2064 -24.1165 -24.0456 -23.9177 -23.8425 -23.8399
   -23.8166 -23.7241 -11.1827  -8.2835  -5.1023  -3.2203

          k = 0.1579 0.4558 0.0000 ( 20118 PWs)   bands (ev):

   -24.4146 -24.2990 -24.2051 -24.1193 -24.0353 -23.9285 -23.8407 -23.8399
   -23.8057 -23.7070 -10.9032  -8.7469  -5.2683  -2.9461

          k = 0.1579 0.5166 0.0000 ( 20111 PWs)   bands (ev):

   -24.4249 -24.3036 -24.2041 -24.1210 -24.0274 -23.9368 -23.8416 -23.8382
   -23.7988 -23.6960 -10.6457  -9.1175  -5.3690  -2.6971

          k = 0.1579 0.5774 0.0000 ( 20107 PWs)   bands (ev):

   -24.4284 -24.3052 -24.2037 -24.1216 -24.0243 -23.9400 -23.8419 -23.8376
   -23.7964 -23.6923 -10.5239  -9.2775  -5.4027  -2.5810

          k = 0.2105 0.3646 0.0000 ( 20081 PWs)   bands (ev):

   -24.4001 -24.2831 -24.2109 -24.1169 -24.0449 -23.9183 -23.8422 -23.8332
   -23.8274 -23.7222 -11.2007  -8.2305  -5.1736  -3.2378

          k = 0.2105 0.4254 0.0000 ( 20101 PWs)   bands (ev):

   -24.4198 -24.2836 -24.2134 -24.1203 -24.0329 -23.9308 -23.8390 -23.8343
   -23.8187 -23.7023 -10.9283  -8.6716  -5.4089  -2.9694

          k = 0.2105 0.4862 0.0000 ( 20120 PWs)   bands (ev):

   -24.4335 -24.2844 -24.2147 -24.1227 -24.0217 -23.9423 -23.8367 -23.8361
   -23.8120 -23.6880 -10.6453  -9.0716  -5.5692  -2.6940

          k = 0.2105 0.5470 0.0000 ( 20120 PWs)   bands (ev):

   -24.4404 -24.2849 -24.2152 -24.1240 -24.0142 -23.9501 -23.8372 -23.8355
   -23.8085 -23.6805 -10.4197  -9.3573  -5.6501  -2.4776

          k = 0.2632 0.4558 0.0000 ( 20123 PWs)   bands (ev):

   -24.4364 -24.2757 -24.2204 -24.1233 -24.0194 -23.9446 -23.8362 -23.8318
   -23.8190 -23.6852 -10.6463  -9.0515  -5.6423  -2.6940

          k = 0.2632 0.5166 0.0000 ( 20106 PWs)   bands (ev):

   -24.4466 -24.2695 -24.2261 -24.1253 -24.0068 -23.9575 -23.8343 -23.8318
   -23.8178 -23.6744 -10.3621  -9.3959  -5.7867  -2.4195

          k = 0.2632 0.5774 0.0000 ( 20095 PWs)   bands (ev):

   -24.4500 -24.2669 -24.2285 -24.1259 -24.0004 -23.9639 -23.8337 -23.8321
   -23.8171 -23.6707 -10.1986  -9.5797  -5.8354  -2.2634

          k = 0.3158 0.5470 0.0000 ( 20115 PWs)   bands (ev):

   -24.4533 -24.2554 -24.2385 -24.1266 -23.9916 -23.9728 -23.8330 -23.8280
   -23.8225 -23.6673 -10.0693  -9.7081  -5.8999  -2.1382

     highest occupied level (ev):    -2.1382

!    total energy              =    -326.39055765 Ry
     estimated scf accuracy    <       0.00000083 Ry

     The total energy is the sum of the following terms:
     one-electron contribution =    -882.70541420 Ry
     hartree contribution      =     448.40248533 Ry
     xc contribution           =     -95.06593251 Ry
     ewald contribution        =     202.97830373 Ry

     convergence has been achieved in   8 iterations

     Writing output data file ../tmp/stanene.save/

     init_run     :      3.12s CPU      3.26s WALL (       1 calls)
     electrons    :     62.72s CPU     65.09s WALL (       1 calls)

     Called by init_run:
     wfcinit      :      2.67s CPU      2.76s WALL (       1 calls)
     potinit      :      0.12s CPU      0.12s WALL (       1 calls)
     hinit0       :      0.17s CPU      0.19s WALL (       1 calls)

     Called by electrons:
     c_bands      :     54.19s CPU     55.71s WALL (       8 calls)
     sum_band     :      7.34s CPU      8.00s WALL (       8 calls)
     v_of_rho     :      0.43s CPU      0.44s WALL (       9 calls)
     newd         :      0.81s CPU      1.00s WALL (       9 calls)
     mix_rho      :      0.09s CPU      0.09s WALL (       8 calls)

     Called by c_bands:
     init_us_2    :      0.67s CPU      0.67s WALL (     680 calls)
     cegterg      :     51.66s CPU     53.16s WALL (     320 calls)

     Called by *egterg:
     cdiaghg      :      0.59s CPU      0.60s WALL (    1120 calls)
     h_psi        :     35.54s CPU     37.07s WALL (    1160 calls)
     s_psi        :      2.61s CPU      2.63s WALL (    1160 calls)
     g_psi        :      0.23s CPU      0.23s WALL (     800 calls)

     Called by h_psi:
     h_psi:calbec :      4.35s CPU      4.50s WALL (    1160 calls)
     vloc_psi     :     28.39s CPU     29.72s WALL (    1160 calls)
     add_vuspsi   :      2.68s CPU      2.72s WALL (    1160 calls)

     General routines
     calbec       :      5.75s CPU      5.96s WALL (    1480 calls)
     fft          :      0.38s CPU      0.39s WALL (      99 calls)
     ffts         :      0.01s CPU      0.01s WALL (       8 calls)
     fftw         :     30.09s CPU     31.51s WALL (   31148 calls)

     Parallel routines
     fft_scatt_xy :      2.76s CPU      2.94s WALL (   31255 calls)
     fft_scatt_yz :     15.87s CPU     16.46s WALL (   31255 calls)

     PWSCF        :   1m 6.06s CPU   1m 8.67s WALL


   This run was terminated on:  21: 9:58  20Jan2024            

=------------------------------------------------------------------------------=
   JOB DONE.
=------------------------------------------------------------------------------=
