
     Program PWSCF v.6.7MaX starts on 24Jan2024 at  0:16:12 

     This program is part of the open-source Quantum ESPRESSO suite
     for quantum simulation of materials; please cite
         "P. Giannozzi et al., J. Phys.:Condens. Matter 21 395502 (2009);
         "P. Giannozzi et al., J. Phys.:Condens. Matter 29 465901 (2017);
          URL http://www.quantum-espresso.org", 
     in publications or presentations arising from this work. More details at
     http://www.quantum-espresso.org/quote

     Parallel version (MPI), running on     6 processors

     MPI processes distributed on     1 nodes
     R & G space division:  proc/nbgrp/npool/nimage =       6
     Waiting for input...
     Reading input from standard input

     Current dimensions of program PWSCF are:
     Max number of different atomic species (ntypx) = 10
     Max number of k-points (npk) =  40000
     Max angular momentum in pseudopotentials (lmaxx) =  3

     Atomic positions and unit cell read from directory:
     ../tmp/stanene.save/
     Atomic positions from file used, from input discarded


     Subspace diagonalization in iterative solution of the eigenvalue problem:
     one sub-group per band group will be used
     scalapack distributed-memory algorithm (size of sub-group:  2*  2 procs)


     Parallelization info
     --------------------
     sticks:   dense  smooth     PW     G-vecs:    dense   smooth      PW
     Min         431     214     61                75909    26818    4015
     Max         432     215     62                75924    26841    4025
     Sum        2587    1285    367               455489   160939   24117



     bravais-lattice index     =            4
     lattice parameter (alat)  =       8.8506  a.u.
     unit-cell volume          =    2563.9136 (a.u.)^3
     number of atoms/cell      =            2
     number of atomic types    =            1
     number of electrons       =        28.00
     number of Kohn-Sham states=           16
     kinetic-energy cutoff     =      60.0000  Ry
     charge density cutoff     =     480.0000  Ry
     Exchange-correlation= SLA  PW   PBE  PBE
                           (   1   4   3   4   0   0   0)

     celldm(1)=   8.850584  celldm(2)=   0.000000  celldm(3)=   4.270286
     celldm(4)=   0.000000  celldm(5)=   0.000000  celldm(6)=   0.000000

     crystal axes: (cart. coord. in units of alat)
               a(1) = (   1.000000   0.000000   0.000000 )  
               a(2) = (  -0.500000   0.866025   0.000000 )  
               a(3) = (   0.000000   0.000000   4.270286 )  

     reciprocal axes: (cart. coord. in units 2 pi/alat)
               b(1) = (  1.000000  0.577350 -0.000000 )  
               b(2) = (  0.000000  1.154701  0.000000 )  
               b(3) = (  0.000000 -0.000000  0.234176 )  


     PseudoPot. # 1 for Sn read from file:
     ../pseudo/Sn_pbe_v1.uspp.F.UPF
     MD5 check sum: 4cf58ce39ec5d5d420df3dd08604eb00
     Pseudo is Ultrasoft + core correction, Zval = 14.0
     Generated by new atomic code, or converted to UPF format
     Using radial grid of  891 points,  6 beta functions with: 
                l(1) =   0
                l(2) =   0
                l(3) =   1
                l(4) =   1
                l(5) =   2
                l(6) =   2
     Q(r) pseudized with  6 coefficients,  rinner =    1.200   1.200   1.200
                                                       1.200   1.200

     atomic species   valence    mass     pseudopotential
        Sn            14.00   118.71000     Sn( 1.00)

      6 Sym. Ops. (no inversion) found



   Cartesian axes

     site n.     atom                  positions (alat units)
         1           Sn  tau(   1) = (   0.0000000   0.5773503   2.1351428  )
         2           Sn  tau(   2) = (   0.5000000   0.2886751   1.9552503  )

     number of k points=   217  Methfessel-Paxton smearing, width (Ry)=  0.0200

     Number of k-points >= 100: set verbosity='high' to print them.

     Dense  grid:   455489 G-vectors     FFT dimensions: (  64,  64, 270)

     Smooth grid:   160939 G-vectors     FFT dimensions: (  45,  45, 192)

     Estimated max dynamical RAM per process >     244.93 MB

     Estimated total dynamical RAM >       1.44 GB

     The potential is recalculated from file :
     ../tmp/stanene.save/charge-density


     negative rho (up, down):  8.547E-05 0.000E+00
     Starting wfcs are   18 randomized atomic wfcs

     Band Structure Calculation
     Davidson diagonalization with overlap

     ethr =  3.57E-09,  avg # of iterations = 19.0

     total cpu time spent up to now is      426.2 secs

     End of band structure calculation

     Number of k-points >= 100: set verbosity='high' to print the bands.

     the Fermi energy is    -2.1476 ev
     (compare with:    -2.3157 eV, computed in scf)

     Writing output data file ../tmp/stanene.save/

     init_run     :      4.53s CPU      6.79s WALL (       1 calls)
     electrons    :    396.96s CPU    418.10s WALL (       1 calls)

     Called by init_run:
     wfcinit      :      0.00s CPU      0.00s WALL (       1 calls)
     potinit      :      0.94s CPU      1.53s WALL (       1 calls)
     hinit0       :      2.10s CPU      2.83s WALL (       1 calls)

     Called by electrons:
     c_bands      :    396.95s CPU    418.09s WALL (       1 calls)
     v_of_rho     :      0.45s CPU      0.88s WALL (       1 calls)
     newd         :      0.74s CPU      1.39s WALL (       1 calls)

     Called by c_bands:
     init_us_2    :      0.26s CPU      0.27s WALL (     217 calls)
     cegterg      :    362.27s CPU    380.86s WALL (     294 calls)

     Called by *egterg:
     cdiaghg      :      8.78s CPU      9.90s WALL (    4349 calls)
     h_psi        :    233.36s CPU    248.22s WALL (    4643 calls)
     s_psi        :     10.71s CPU     10.79s WALL (    4643 calls)
     g_psi        :      0.91s CPU      0.92s WALL (    4132 calls)

     Called by h_psi:
     h_psi:calbec :     26.47s CPU     28.02s WALL (    4643 calls)
     vloc_psi     :    195.26s CPU    208.47s WALL (    4643 calls)
     add_vuspsi   :     11.12s CPU     11.23s WALL (    4643 calls)

     General routines
     calbec       :     26.45s CPU     28.01s WALL (    4643 calls)
     fft          :      0.51s CPU      0.94s WALL (      13 calls)
     ffts         :      0.03s CPU      0.03s WALL (       1 calls)
     fftw         :    184.17s CPU    196.84s WALL (   77508 calls)
     interpolate  :      0.05s CPU      0.06s WALL (       1 calls)
     davcio       :      0.16s CPU      0.35s WALL (     434 calls)

     Parallel routines
     fft_scatt_xy :     10.23s CPU     10.75s WALL (   77522 calls)
     fft_scatt_yz :    134.32s CPU    144.96s WALL (   77522 calls)

     PWSCF        :   6m42.88s CPU   7m 7.62s WALL


   This run was terminated on:   0:23:19  24Jan2024            

=------------------------------------------------------------------------------=
   JOB DONE.
=------------------------------------------------------------------------------=
