
     Program PROJWFC v.6.7MaX starts on 24Jan2024 at  0:16:11 

     This program is part of the open-source Quantum ESPRESSO suite
     for quantum simulation of materials; please cite
         "P. Giannozzi et al., J. Phys.:Condens. Matter 21 395502 (2009);
         "P. Giannozzi et al., J. Phys.:Condens. Matter 29 465901 (2017);
          URL http://www.quantum-espresso.org", 
     in publications or presentations arising from this work. More details at
     http://www.quantum-espresso.org/quote

     Parallel version (MPI), running on     6 processors

     MPI processes distributed on     1 nodes
     R & G space division:  proc/nbgrp/npool/nimage =       6

     Reading xml data from directory:

     ../tmp/stanene.save/

     IMPORTANT: XC functional enforced from input :
     Exchange-correlation= PBE
                           (   1   4   3   4   0   0   0)
     Any further DFT definition will be discarded
     Please, verify this is what you really want


     Parallelization info
     --------------------
     sticks:   dense  smooth     PW     G-vecs:    dense   smooth      PW
     Min         431     214     61                75909    26818    4015
     Max         432     215     62                75924    26841    4025
     Sum        2587    1285    367               455489   160939   24117


     negative rho (up, down):  8.547E-05 0.000E+00

     Gaussian broadening (read from file): ngauss,degauss=  -1    0.040000


     Calling projwave .... 
     linear algebra parallelized on   4 procs

  Problem Sizes 
  natomwfc =           18
  nx       =            9
  nbnd     =           18
  nkstot   =           61
  npwx     =         3408
  nkb      =           36


     Atomic states used for projection
     (read from pseudopotential files):

     state #   1: atom   1 (Sn ), wfc  1 (l=2 m= 1)
     state #   2: atom   1 (Sn ), wfc  1 (l=2 m= 2)
     state #   3: atom   1 (Sn ), wfc  1 (l=2 m= 3)
     state #   4: atom   1 (Sn ), wfc  1 (l=2 m= 4)
     state #   5: atom   1 (Sn ), wfc  1 (l=2 m= 5)
     state #   6: atom   1 (Sn ), wfc  2 (l=0 m= 1)
     state #   7: atom   1 (Sn ), wfc  3 (l=1 m= 1)
     state #   8: atom   1 (Sn ), wfc  3 (l=1 m= 2)
     state #   9: atom   1 (Sn ), wfc  3 (l=1 m= 3)
     state #  10: atom   2 (Sn ), wfc  1 (l=2 m= 1)
     state #  11: atom   2 (Sn ), wfc  1 (l=2 m= 2)
     state #  12: atom   2 (Sn ), wfc  1 (l=2 m= 3)
     state #  13: atom   2 (Sn ), wfc  1 (l=2 m= 4)
     state #  14: atom   2 (Sn ), wfc  1 (l=2 m= 5)
     state #  15: atom   2 (Sn ), wfc  2 (l=0 m= 1)
     state #  16: atom   2 (Sn ), wfc  3 (l=1 m= 1)
     state #  17: atom   2 (Sn ), wfc  3 (l=1 m= 2)
     state #  18: atom   2 (Sn ), wfc  3 (l=1 m= 3)

 k =   0.0000000000  0.0000000000  0.0000000000
==== e(   1) =   -23.52908 eV ==== 
     psi = 0.131*[#   4]+0.131*[#   5]+0.130*[#  13]+0.130*[#  14]+0.119*[#   2]
          +0.119*[#   3]+0.119*[#  11]+0.119*[#  12]
    |psi|^2 = 1.000
==== e(   2) =   -23.52908 eV ==== 
     psi = 0.131*[#   4]+0.131*[#   5]+0.130*[#  13]+0.130*[#  14]+0.119*[#   2]
          +0.119*[#   3]+0.119*[#  11]+0.119*[#  12]
    |psi|^2 = 1.000
==== e(   3) =   -23.45077 eV ==== 
     psi = 0.176*[#   2]+0.176*[#   3]+0.176*[#  11]+0.176*[#  12]+0.074*[#   4]
          +0.074*[#   5]+0.073*[#  13]+0.073*[#  14]
    |psi|^2 = 1.000
==== e(   4) =   -23.45077 eV ==== 
     psi = 0.176*[#   2]+0.176*[#   3]+0.176*[#  11]+0.176*[#  12]+0.074*[#   4]
          +0.074*[#   5]+0.073*[#  13]+0.073*[#  14]
    |psi|^2 = 1.000
==== e(   5) =   -23.43635 eV ==== 
     psi = 0.500*[#   1]+0.498*[#  10]
    |psi|^2 = 1.000
==== e(   6) =   -23.36647 eV ==== 
     psi = 0.500*[#  10]+0.498*[#   1]
    |psi|^2 = 1.000
==== e(   7) =   -23.22399 eV ==== 
     psi = 0.131*[#  11]+0.131*[#  12]+0.131*[#   2]+0.131*[#   3]+0.119*[#   4]
          +0.119*[#   5]+0.119*[#  13]+0.119*[#  14]
    |psi|^2 = 1.000
==== e(   8) =   -23.22399 eV ==== 
     psi = 0.131*[#  11]+0.131*[#  12]+0.131*[#   2]+0.131*[#   3]+0.119*[#   4]
          +0.119*[#   5]+0.119*[#  13]+0.119*[#  14]
    |psi|^2 = 1.000
==== e(   9) =   -23.16802 eV ==== 
     psi = 0.176*[#  13]+0.176*[#  14]+0.176*[#   4]+0.176*[#   5]+0.073*[#   2]
          +0.073*[#   3]+0.073*[#  11]+0.073*[#  12]
    |psi|^2 = 1.000
==== e(  10) =   -23.16802 eV ==== 
     psi = 0.176*[#  13]+0.176*[#  14]+0.176*[#   4]+0.176*[#   5]+0.073*[#   2]
          +0.073*[#   3]+0.073*[#  11]+0.073*[#  12]
    |psi|^2 = 1.000
==== e(  11) =   -11.37233 eV ==== 
     psi = 0.483*[#   6]+0.483*[#  15]+0.015*[#   7]+0.015*[#  16]
    |psi|^2 = 0.997
==== e(  12) =    -5.27654 eV ==== 
     psi = 0.284*[#   6]+0.284*[#  15]+0.215*[#   7]+0.215*[#  16]
    |psi|^2 = 0.998
==== e(  13) =    -2.40238 eV ==== 
     psi = 0.248*[#   8]+0.248*[#   9]+0.248*[#  17]+0.248*[#  18]
    |psi|^2 = 0.993
==== e(  14) =    -2.40238 eV ==== 
     psi = 0.248*[#   8]+0.248*[#   9]+0.248*[#  17]+0.248*[#  18]
    |psi|^2 = 0.993
==== e(  15) =    -1.94256 eV ==== 
     psi = 0.277*[#   7]+0.277*[#  16]+0.210*[#   6]+0.210*[#  15]
    |psi|^2 = 0.975
==== e(  16) =    -0.06626 eV ==== 
     psi = 0.338*[#   7]+0.338*[#  16]+0.010*[#   6]+0.010*[#  15]
    |psi|^2 = 0.697
==== e(  17) =     1.09388 eV ==== 
     psi = 0.233*[#   8]+0.233*[#   9]+0.233*[#  17]+0.233*[#  18]
    |psi|^2 = 0.937
==== e(  18) =     1.09388 eV ==== 
     psi = 0.233*[#   8]+0.233*[#   9]+0.233*[#  17]+0.233*[#  18]
    |psi|^2 = 0.937

 k =   0.0000000000  0.0481125224  0.0000000000
==== e(   1) =   -23.52999 eV ==== 
     psi = 0.130*[#   4]+0.130*[#   5]+0.130*[#  13]+0.130*[#  14]+0.117*[#   2]
          +0.117*[#   3]+0.117*[#  11]+0.117*[#  12]+0.005*[#   1]+0.005*[#  10]
          
    |psi|^2 = 1.000
==== e(   2) =   -23.52984 eV ==== 
     psi = 0.132*[#   4]+0.132*[#   5]+0.132*[#  13]+0.132*[#  14]+0.118*[#   2]
          +0.118*[#   3]+0.117*[#  11]+0.117*[#  12]
    |psi|^2 = 1.000
==== e(   3) =   -23.45253 eV ==== 
     psi = 0.153*[#   2]+0.153*[#   3]+0.153*[#  11]+0.153*[#  12]+0.080*[#   1]
          +0.080*[#  10]+0.056*[#   4]+0.056*[#   5]+0.056*[#  13]+0.056*[#  14]
          
    |psi|^2 = 1.000
==== e(   4) =   -23.44958 eV ==== 
     psi = 0.178*[#   2]+0.178*[#   3]+0.178*[#  11]+0.178*[#  12]+0.072*[#   4]
          +0.072*[#   5]+0.072*[#  13]+0.072*[#  14]
    |psi|^2 = 1.000
==== e(   5) =   -23.43394 eV ==== 
     psi = 0.418*[#   1]+0.416*[#  10]+0.024*[#   2]+0.024*[#   3]+0.024*[#  11]
          +0.024*[#  12]+0.017*[#   4]+0.017*[#   5]+0.017*[#  13]+0.017*[#  14]
          
    |psi|^2 = 1.000
==== e(   6) =   -23.36521 eV ==== 
     psi = 0.495*[#  10]+0.493*[#   1]+0.002*[#   4]+0.002*[#   5]+0.002*[#  13]
          +0.002*[#  14]
    |psi|^2 = 1.000
==== e(   7) =   -23.22650 eV ==== 
     psi = 0.132*[#  11]+0.132*[#  12]+0.132*[#   2]+0.132*[#   3]+0.118*[#   4]
          +0.118*[#   5]+0.118*[#  13]+0.118*[#  14]
    |psi|^2 = 1.000
==== e(   8) =   -23.22631 eV ==== 
     psi = 0.132*[#  11]+0.132*[#  12]+0.132*[#   2]+0.132*[#   3]+0.118*[#   4]
          +0.118*[#   5]+0.118*[#  13]+0.118*[#  14]
    |psi|^2 = 1.000
==== e(   9) =   -23.16670 eV ==== 
     psi = 0.176*[#  13]+0.176*[#  14]+0.175*[#   4]+0.175*[#   5]+0.073*[#   2]
          +0.073*[#   3]+0.073*[#  11]+0.073*[#  12]+0.002*[#   1]+0.002*[#  10]
          
    |psi|^2 = 1.000
==== e(  10) =   -23.16573 eV ==== 
     psi = 0.177*[#  13]+0.177*[#  14]+0.177*[#   4]+0.177*[#   5]+0.072*[#   2]
          +0.072*[#   3]+0.072*[#  11]+0.072*[#  12]
    |psi|^2 = 1.000
==== e(  11) =   -11.35762 eV ==== 
     psi = 0.481*[#   6]+0.481*[#  15]+0.015*[#   7]+0.015*[#  16]+0.001*[#   8]
          +0.001*[#   9]+0.001*[#  17]+0.001*[#  18]
    |psi|^2 = 0.997
==== e(  12) =    -5.29961 eV ==== 
     psi = 0.290*[#   6]+0.290*[#  15]+0.205*[#   7]+0.205*[#  16]+0.002*[#   8]
          +0.002*[#   9]+0.002*[#  17]+0.002*[#  18]
    |psi|^2 = 0.998
==== e(  13) =    -2.69157 eV ==== 
     psi = 0.175*[#   8]+0.175*[#   9]+0.175*[#  17]+0.175*[#  18]+0.104*[#   7]
          +0.104*[#  16]+0.039*[#   6]+0.039*[#  15]
    |psi|^2 = 0.991
==== e(  14) =    -2.43488 eV ==== 
     psi = 0.248*[#   8]+0.248*[#   9]+0.248*[#  17]+0.248*[#  18]
    |psi|^2 = 0.993
==== e(  15) =    -1.63515 eV ==== 
     psi = 0.183*[#   7]+0.183*[#  16]+0.164*[#   6]+0.164*[#  15]+0.070*[#   8]
          +0.070*[#   9]+0.070*[#  17]+0.070*[#  18]
    |psi|^2 = 0.977
==== e(  16) =    -0.06516 eV ==== 
     psi = 0.342*[#   7]+0.342*[#  16]+0.010*[#   6]+0.010*[#  15]
    |psi|^2 = 0.705
==== e(  17) =     1.06377 eV ==== 
     psi = 0.229*[#   8]+0.229*[#   9]+0.229*[#  17]+0.229*[#  18]+0.002*[#   6]
          +0.002*[#  15]
    |psi|^2 = 0.925
==== e(  18) =     1.14965 eV ==== 
     psi = 0.233*[#   8]+0.233*[#   9]+0.233*[#  17]+0.233*[#  18]
    |psi|^2 = 0.936

 k =   0.0000000000  0.0962250449  0.0000000000
==== e(   1) =   -23.53243 eV ==== 
     psi = 0.127*[#   4]+0.127*[#   5]+0.127*[#  13]+0.127*[#  14]+0.114*[#   2]
          +0.114*[#   3]+0.114*[#  11]+0.114*[#  12]+0.017*[#   1]+0.017*[#  10]
          
    |psi|^2 = 1.000
==== e(   2) =   -23.53192 eV ==== 
     psi = 0.135*[#   4]+0.135*[#   5]+0.135*[#  13]+0.135*[#  14]+0.114*[#   2]
          +0.114*[#   3]+0.114*[#  11]+0.114*[#  12]
    |psi|^2 = 1.000
==== e(   3) =   -23.45641 eV ==== 
     psi = 0.181*[#   1]+0.181*[#  10]+0.126*[#   2]+0.126*[#   3]+0.126*[#  11]
          +0.126*[#  12]+0.034*[#   4]+0.034*[#   5]+0.034*[#  13]+0.034*[#  14]
          
    |psi|^2 = 1.000
==== e(   4) =   -23.44623 eV ==== 
     psi = 0.181*[#   2]+0.181*[#   3]+0.181*[#  11]+0.181*[#  12]+0.069*[#   4]
          +0.069*[#   5]+0.069*[#  13]+0.069*[#  14]
    |psi|^2 = 1.000
==== e(   5) =   -23.42847 eV ==== 
     psi = 0.314*[#   1]+0.312*[#  10]+0.053*[#   2]+0.053*[#   3]+0.053*[#  11]
          +0.053*[#  12]+0.041*[#   4]+0.041*[#   5]+0.040*[#  13]+0.040*[#  14]
          
    |psi|^2 = 1.000
==== e(   6) =   -23.36147 eV ==== 
     psi = 0.479*[#  10]+0.477*[#   1]+0.008*[#   4]+0.008*[#   5]+0.008*[#  13]
          +0.008*[#  14]+0.003*[#   2]+0.003*[#   3]+0.003*[#  11]+0.003*[#  12]
          
    |psi|^2 = 1.000
==== e(   7) =   -23.23296 eV ==== 
     psi = 0.135*[#  11]+0.135*[#  12]+0.135*[#   2]+0.135*[#   3]+0.115*[#   4]
          +0.115*[#   5]+0.115*[#  13]+0.115*[#  14]
    |psi|^2 = 1.000
==== e(   8) =   -23.23246 eV ==== 
     psi = 0.134*[#  11]+0.134*[#  12]+0.134*[#   2]+0.134*[#   3]+0.114*[#   4]
          +0.114*[#   5]+0.114*[#  13]+0.114*[#  14]+0.003*[#   1]+0.003*[#  10]
          
    |psi|^2 = 1.000
==== e(   9) =   -23.16348 eV ==== 
     psi = 0.175*[#  13]+0.175*[#  14]+0.175*[#   4]+0.175*[#   5]+0.071*[#   2]
          +0.071*[#   3]+0.071*[#  11]+0.071*[#  12]+0.006*[#   1]+0.006*[#  10]
          
    |psi|^2 = 1.000
==== e(  10) =   -23.15989 eV ==== 
     psi = 0.180*[#  13]+0.180*[#  14]+0.180*[#   4]+0.180*[#   5]+0.069*[#   2]
          +0.069*[#   3]+0.069*[#  11]+0.069*[#  12]
    |psi|^2 = 1.000
==== e(  11) =   -11.31357 eV ==== 
     psi = 0.476*[#   6]+0.476*[#  15]+0.014*[#   7]+0.014*[#  16]+0.004*[#   8]
          +0.004*[#   9]+0.004*[#  17]+0.004*[#  18]
    |psi|^2 = 0.998
==== e(  12) =    -5.37712 eV ==== 
     psi = 0.307*[#   6]+0.307*[#  15]+0.173*[#   7]+0.173*[#  16]+0.009*[#   8]
          +0.009*[#   9]+0.009*[#  17]+0.009*[#  18]
    |psi|^2 = 0.997
==== e(  13) =    -3.07833 eV ==== 
     psi = 0.173*[#   7]+0.173*[#  16]+0.145*[#   8]+0.145*[#   9]+0.145*[#  17]
          +0.145*[#  18]+0.032*[#   6]+0.032*[#  15]
    |psi|^2 = 0.992
==== e(  14) =    -2.52536 eV ==== 
     psi = 0.248*[#   8]+0.248*[#   9]+0.248*[#  17]+0.248*[#  18]
    |psi|^2 = 0.994
==== e(  15) =    -1.19928 eV ==== 
     psi = 0.154*[#   6]+0.154*[#  15]+0.144*[#   7]+0.144*[#  16]+0.094*[#   8]
          +0.094*[#   9]+0.094*[#  17]+0.094*[#  18]
    |psi|^2 = 0.974
==== e(  16) =    -0.06515 eV ==== 
     psi = 0.351*[#   7]+0.351*[#  16]+0.011*[#   6]+0.011*[#  15]
    |psi|^2 = 0.728
==== e(  17) =     1.00812 eV ==== 
     psi = 0.218*[#   8]+0.218*[#   9]+0.218*[#  17]+0.218*[#  18]+0.009*[#   6]
          +0.009*[#  15]+0.001*[#   7]+0.001*[#  16]
    |psi|^2 = 0.895
==== e(  18) =     1.30895 eV ==== 
     psi = 0.233*[#   8]+0.233*[#   9]+0.233*[#  17]+0.233*[#  18]
    |psi|^2 = 0.936

 k =   0.0000000000  0.1443375673  0.0000000000
==== e(   1) =   -23.53568 eV ==== 
     psi = 0.123*[#   4]+0.123*[#   5]+0.123*[#  13]+0.123*[#  14]+0.109*[#   2]
          +0.109*[#   3]+0.109*[#  11]+0.109*[#  12]+0.035*[#   1]+0.035*[#  10]
          
    |psi|^2 = 1.000
==== e(   2) =   -23.53488 eV ==== 
     psi = 0.140*[#   4]+0.140*[#   5]+0.140*[#  13]+0.140*[#  14]+0.109*[#   2]
          +0.109*[#   3]+0.109*[#  11]+0.109*[#  12]
    |psi|^2 = 1.000
==== e(   3) =   -23.46119 eV ==== 
     psi = 0.246*[#   1]+0.245*[#  10]+0.109*[#   2]+0.109*[#   3]+0.109*[#  11]
          +0.109*[#  12]+0.018*[#   4]+0.018*[#   5]+0.018*[#  13]+0.018*[#  14]
          
    |psi|^2 = 1.000
==== e(   4) =   -23.44127 eV ==== 
     psi = 0.186*[#   2]+0.186*[#   3]+0.186*[#  11]+0.186*[#  12]+0.064*[#   4]
          +0.064*[#   5]+0.064*[#  13]+0.064*[#  14]
    |psi|^2 = 1.000
==== e(   5) =   -23.42197 eV ==== 
     psi = 0.246*[#   1]+0.245*[#  10]+0.070*[#   2]+0.070*[#   3]+0.070*[#  11]
          +0.070*[#  12]+0.057*[#   4]+0.057*[#   5]+0.057*[#  13]+0.057*[#  14]
          
    |psi|^2 = 1.000
==== e(   6) =   -23.35532 eV ==== 
     psi = 0.453*[#  10]+0.451*[#   1]+0.017*[#   4]+0.017*[#   5]+0.017*[#  13]
          +0.017*[#  14]+0.007*[#   2]+0.007*[#   3]+0.007*[#  11]+0.007*[#  12]
          
    |psi|^2 = 1.000
==== e(   7) =   -23.24156 eV ==== 
     psi = 0.140*[#  11]+0.140*[#  12]+0.140*[#   2]+0.140*[#   3]+0.110*[#   4]
          +0.110*[#   5]+0.110*[#  13]+0.110*[#  14]
    |psi|^2 = 1.000
==== e(   8) =   -23.24089 eV ==== 
     psi = 0.138*[#  11]+0.138*[#  12]+0.138*[#   2]+0.138*[#   3]+0.107*[#   4]
          +0.107*[#   5]+0.107*[#  13]+0.107*[#  14]+0.009*[#   1]+0.009*[#  10]
          
    |psi|^2 = 1.000
==== e(   9) =   -23.15971 eV ==== 
     psi = 0.176*[#  13]+0.176*[#  14]+0.176*[#   4]+0.176*[#   5]+0.068*[#   2]
          +0.068*[#   3]+0.068*[#  11]+0.068*[#  12]+0.012*[#   1]+0.012*[#  10]
          
    |psi|^2 = 1.000
==== e(  10) =   -23.15228 eV ==== 
     psi = 0.185*[#  13]+0.185*[#  14]+0.185*[#   4]+0.185*[#   5]+0.064*[#   2]
          +0.064*[#   3]+0.064*[#  11]+0.064*[#  12]
    |psi|^2 = 1.000
==== e(  11) =   -11.24046 eV ==== 
     psi = 0.468*[#   6]+0.468*[#  15]+0.013*[#   7]+0.013*[#  16]+0.008*[#   8]
          +0.008*[#   9]+0.008*[#  17]+0.008*[#  18]
    |psi|^2 = 0.998
==== e(  12) =    -5.52970 eV ==== 
     psi = 0.326*[#   6]+0.326*[#  15]+0.126*[#   7]+0.126*[#  16]+0.023*[#   8]
          +0.023*[#   9]+0.023*[#  17]+0.023*[#  18]
    |psi|^2 = 0.997
==== e(  13) =    -3.38841 eV ==== 
     psi = 0.236*[#   7]+0.236*[#  16]+0.123*[#   8]+0.123*[#   9]+0.123*[#  17]
          +0.123*[#  18]+0.013*[#   6]+0.013*[#  15]
    |psi|^2 = 0.994
==== e(  14) =    -2.65702 eV ==== 
     psi = 0.248*[#   8]+0.248*[#   9]+0.248*[#  17]+0.248*[#  18]
    |psi|^2 = 0.994
==== e(  15) =    -0.83531 eV ==== 
     psi = 0.147*[#   6]+0.147*[#  15]+0.124*[#   7]+0.124*[#  16]+0.106*[#   8]
          +0.106*[#   9]+0.106*[#  17]+0.106*[#  18]
    |psi|^2 = 0.967
==== e(  16) =    -0.07504 eV ==== 
     psi = 0.366*[#   7]+0.366*[#  16]+0.013*[#   6]+0.013*[#  15]+0.002*[#   8]
          +0.002*[#   9]+0.002*[#  17]+0.002*[#  18]
    |psi|^2 = 0.768
==== e(  17) =     1.01190 eV ==== 
     psi = 0.200*[#   8]+0.200*[#   9]+0.200*[#  17]+0.200*[#  18]+0.022*[#   6]
          +0.022*[#  15]+0.005*[#   7]+0.005*[#  16]
    |psi|^2 = 0.856
==== e(  18) =     1.55178 eV ==== 
     psi = 0.233*[#   8]+0.233*[#   9]+0.233*[#  17]+0.233*[#  18]
    |psi|^2 = 0.935

 k =   0.0000000000  0.1924500897  0.0000000000
==== e(   1) =   -23.53895 eV ==== 
     psi = 0.119*[#   4]+0.119*[#   5]+0.119*[#  13]+0.119*[#  14]+0.103*[#   2]
          +0.103*[#   3]+0.103*[#  11]+0.103*[#  12]+0.054*[#   1]+0.054*[#  10]
          
    |psi|^2 = 1.000
==== e(   2) =   -23.53821 eV ==== 
     psi = 0.146*[#   4]+0.146*[#   5]+0.146*[#  13]+0.146*[#  14]+0.104*[#   2]
          +0.104*[#   3]+0.104*[#  11]+0.104*[#  12]
    |psi|^2 = 1.000
==== e(   3) =   -23.46659 eV ==== 
     psi = 0.285*[#   1]+0.284*[#  10]+0.099*[#   2]+0.099*[#   3]+0.099*[#  11]
          +0.099*[#  12]+0.009*[#   4]+0.009*[#   5]+0.009*[#  13]+0.009*[#  14]
          
    |psi|^2 = 1.000
==== e(   4) =   -23.43534 eV ==== 
     psi = 0.192*[#   2]+0.192*[#   3]+0.191*[#  11]+0.191*[#  12]+0.058*[#   4]
          +0.058*[#   5]+0.058*[#  13]+0.058*[#  14]
    |psi|^2 = 1.000
==== e(   5) =   -23.41564 eV ==== 
     psi = 0.204*[#   1]+0.204*[#  10]+0.078*[#   2]+0.078*[#   3]+0.078*[#  11]
          +0.078*[#  12]+0.070*[#   4]+0.070*[#   5]+0.070*[#  13]+0.070*[#  14]
          
    |psi|^2 = 1.000
==== e(   6) =   -23.34695 eV ==== 
     psi = 0.417*[#  10]+0.415*[#   1]+0.028*[#   4]+0.028*[#   5]+0.028*[#  13]
          +0.028*[#  14]+0.014*[#   2]+0.014*[#   3]+0.014*[#  11]+0.014*[#  12]
          
    |psi|^2 = 1.000
==== e(   7) =   -23.25100 eV ==== 
     psi = 0.146*[#  11]+0.146*[#  12]+0.146*[#   2]+0.146*[#   3]+0.104*[#   4]
          +0.104*[#   5]+0.104*[#  13]+0.104*[#  14]
    |psi|^2 = 1.000
==== e(   8) =   -23.25025 eV ==== 
     psi = 0.143*[#  11]+0.143*[#  12]+0.143*[#   2]+0.143*[#   3]+0.096*[#   4]
          +0.096*[#   5]+0.096*[#  13]+0.096*[#  14]+0.021*[#   1]+0.021*[#  10]
          
    |psi|^2 = 1.000
==== e(   9) =   -23.15645 eV ==== 
     psi = 0.177*[#  13]+0.177*[#  14]+0.177*[#   4]+0.177*[#   5]+0.063*[#   2]
          +0.063*[#   3]+0.063*[#  11]+0.063*[#  12]+0.019*[#   1]+0.019*[#  10]
          
    |psi|^2 = 1.000
==== e(  10) =   -23.14414 eV ==== 
     psi = 0.191*[#  13]+0.191*[#  14]+0.191*[#   4]+0.191*[#   5]+0.059*[#   2]
          +0.059*[#   3]+0.059*[#  11]+0.059*[#  12]
    |psi|^2 = 1.000
==== e(  11) =   -11.13879 eV ==== 
     psi = 0.458*[#   6]+0.458*[#  15]+0.014*[#   8]+0.014*[#   9]+0.014*[#  17]
          +0.014*[#  18]+0.012*[#   7]+0.012*[#  16]
    |psi|^2 = 0.998
==== e(  12) =    -5.77329 eV ==== 
     psi = 0.339*[#   6]+0.339*[#  15]+0.077*[#   7]+0.077*[#  16]+0.041*[#   8]
          +0.041*[#   9]+0.041*[#  17]+0.041*[#  18]
    |psi|^2 = 0.996
==== e(  13) =    -3.58391 eV ==== 
     psi = 0.291*[#   7]+0.291*[#  16]+0.102*[#   8]+0.102*[#   9]+0.102*[#  17]
          +0.102*[#  18]+0.002*[#   6]+0.002*[#  15]
    |psi|^2 = 0.995
==== e(  14) =    -2.81102 eV ==== 
     psi = 0.248*[#  17]+0.248*[#  18]+0.248*[#   8]+0.248*[#   9]
    |psi|^2 = 0.995
==== e(  15) =    -0.63453 eV ==== 
     psi = 0.132*[#   6]+0.132*[#  15]+0.118*[#   8]+0.118*[#   9]+0.118*[#  17]
          +0.118*[#  18]+0.110*[#   7]+0.110*[#  16]
    |psi|^2 = 0.957
==== e(  16) =    -0.09809 eV ==== 
     psi = 0.379*[#   7]+0.379*[#  16]+0.017*[#   6]+0.017*[#  15]+0.006*[#   8]
          +0.006*[#   9]+0.006*[#  17]+0.006*[#  18]
    |psi|^2 = 0.816
==== e(  17) =     1.15613 eV ==== 
     psi = 0.173*[#   8]+0.173*[#   9]+0.173*[#  17]+0.173*[#  18]+0.040*[#   6]
          +0.040*[#  15]+0.015*[#   7]+0.015*[#  16]
    |psi|^2 = 0.802
==== e(  18) =     2.17744 eV ==== 
     psi = 0.010*[#  16]+0.010*[#   7]+0.002*[#   8]+0.002*[#   9]+0.002*[#  17]
          +0.002*[#  18]
    |psi|^2 = 0.027

 k =   0.0000000000  0.2405626122  0.0000000000
==== e(   1) =   -23.54164 eV ==== 
     psi = 0.114*[#   4]+0.114*[#   5]+0.114*[#  13]+0.114*[#  14]+0.098*[#   2]
          +0.098*[#   3]+0.098*[#  11]+0.098*[#  12]+0.075*[#   1]+0.075*[#  10]
          
    |psi|^2 = 1.000
==== e(   2) =   -23.54151 eV ==== 
     psi = 0.152*[#   4]+0.152*[#   5]+0.152*[#  13]+0.152*[#  14]+0.098*[#   2]
          +0.098*[#   3]+0.097*[#  11]+0.097*[#  12]
    |psi|^2 = 1.000
==== e(   3) =   -23.47248 eV ==== 
     psi = 0.309*[#   1]+0.308*[#  10]+0.092*[#   2]+0.092*[#   3]+0.092*[#  11]
          +0.092*[#  12]+0.003*[#   4]+0.003*[#   5]+0.003*[#  13]+0.003*[#  14]
          
    |psi|^2 = 1.000
==== e(   4) =   -23.42901 eV ==== 
     psi = 0.198*[#   2]+0.198*[#   3]+0.197*[#  11]+0.197*[#  12]+0.052*[#   4]
          +0.052*[#   5]+0.052*[#  13]+0.052*[#  14]
    |psi|^2 = 1.000
==== e(   5) =   -23.41031 eV ==== 
     psi = 0.177*[#   1]+0.176*[#  10]+0.082*[#   4]+0.082*[#   5]+0.082*[#  13]
          +0.082*[#  14]+0.080*[#   2]+0.080*[#   3]+0.080*[#  11]+0.080*[#  12]
          
    |psi|^2 = 1.000
==== e(   6) =   -23.33669 eV ==== 
     psi = 0.374*[#  10]+0.372*[#   1]+0.039*[#  13]+0.039*[#  14]+0.039*[#   4]
          +0.039*[#   5]+0.024*[#   2]+0.024*[#   3]+0.024*[#  11]+0.024*[#  12]
          
    |psi|^2 = 1.000
==== e(   7) =   -23.26050 eV ==== 
     psi = 0.152*[#  11]+0.152*[#  12]+0.152*[#   2]+0.152*[#   3]+0.098*[#   4]
          +0.098*[#   5]+0.098*[#  13]+0.098*[#  14]
    |psi|^2 = 1.000
==== e(   8) =   -23.25952 eV ==== 
     psi = 0.149*[#  11]+0.149*[#  12]+0.148*[#   2]+0.148*[#   3]+0.082*[#   4]
          +0.082*[#   5]+0.082*[#  13]+0.082*[#  14]+0.039*[#   1]+0.039*[#  10]
          
    |psi|^2 = 1.000
==== e(   9) =   -23.15429 eV ==== 
     psi = 0.179*[#  13]+0.179*[#  14]+0.179*[#   4]+0.179*[#   5]+0.057*[#   2]
          +0.057*[#   3]+0.057*[#  11]+0.057*[#  12]+0.026*[#   1]+0.026*[#  10]
          
    |psi|^2 = 1.000
==== e(  10) =   -23.13614 eV ==== 
     psi = 0.197*[#  13]+0.197*[#  14]+0.197*[#   4]+0.197*[#   5]+0.053*[#   2]
          +0.053*[#   3]+0.053*[#  11]+0.053*[#  12]
    |psi|^2 = 1.000
==== e(  11) =   -11.00943 eV ==== 
     psi = 0.447*[#   6]+0.447*[#  15]+0.020*[#   8]+0.020*[#   9]+0.020*[#  17]
          +0.020*[#  18]+0.011*[#   7]+0.011*[#  16]
    |psi|^2 = 0.998
==== e(  12) =    -6.09898 eV ==== 
     psi = 0.340*[#   6]+0.340*[#  15]+0.058*[#   8]+0.058*[#   9]+0.058*[#  17]
          +0.058*[#  18]+0.041*[#   7]+0.041*[#  16]
    |psi|^2 = 0.996
==== e(  13) =    -3.66475 eV ==== 
     psi = 0.328*[#   7]+0.328*[#  16]+0.083*[#   8]+0.083*[#   9]+0.083*[#  17]
          +0.083*[#  18]+0.002*[#   6]+0.002*[#  15]
    |psi|^2 = 0.995
==== e(  14) =    -2.97141 eV ==== 
     psi = 0.248*[#  17]+0.248*[#  18]+0.248*[#   8]+0.248*[#   9]
    |psi|^2 = 0.995
==== e(  15) =    -0.62190 eV ==== 
     psi = 0.121*[#   8]+0.121*[#   9]+0.121*[#  17]+0.121*[#  18]+0.117*[#   7]
          +0.117*[#  16]+0.114*[#   6]+0.114*[#  15]
    |psi|^2 = 0.947
==== e(  16) =    -0.12703 eV ==== 
     psi = 0.377*[#   7]+0.377*[#  16]+0.025*[#   6]+0.025*[#  15]+0.014*[#   8]
          +0.014*[#   9]+0.014*[#  17]+0.014*[#  18]
    |psi|^2 = 0.860
==== e(  17) =     1.41467 eV ==== 
     psi = 0.136*[#   8]+0.136*[#   9]+0.136*[#  17]+0.136*[#  18]+0.050*[#   6]
          +0.050*[#  15]+0.023*[#   7]+0.023*[#  16]
    |psi|^2 = 0.692
==== e(  18) =     2.28815 eV ==== 
     psi = 0.013*[#   7]+0.013*[#  16]+0.008*[#   8]+0.008*[#   9]+0.008*[#  17]
          +0.008*[#  18]+0.002*[#   6]+0.002*[#  15]
    |psi|^2 = 0.063

 k =   0.0000000000  0.2886751346  0.0000000000
==== e(   1) =   -23.54453 eV ==== 
     psi = 0.158*[#   4]+0.158*[#   5]+0.158*[#  13]+0.158*[#  14]+0.091*[#   2]
          +0.091*[#   3]+0.091*[#  11]+0.091*[#  12]
    |psi|^2 = 1.000
==== e(   2) =   -23.54332 eV ==== 
     psi = 0.109*[#   4]+0.109*[#   5]+0.109*[#  13]+0.109*[#  14]+0.096*[#   1]
          +0.096*[#  10]+0.092*[#   2]+0.092*[#   3]+0.092*[#  11]+0.092*[#  12]
          
    |psi|^2 = 1.000
==== e(   3) =   -23.47873 eV ==== 
     psi = 0.322*[#   1]+0.321*[#  10]+0.088*[#   2]+0.088*[#   3]+0.088*[#  11]
          +0.088*[#  12]
    |psi|^2 = 1.000
==== e(   4) =   -23.42276 eV ==== 
     psi = 0.204*[#   2]+0.204*[#   3]+0.203*[#  11]+0.203*[#  12]+0.047*[#   4]
          +0.047*[#   5]+0.046*[#  13]+0.046*[#  14]
    |psi|^2 = 1.000
==== e(   5) =   -23.40643 eV ==== 
     psi = 0.154*[#   1]+0.154*[#  10]+0.095*[#   4]+0.095*[#   5]+0.094*[#  13]
          +0.094*[#  14]+0.078*[#   2]+0.078*[#   3]+0.078*[#  11]+0.078*[#  12]
          
    |psi|^2 = 1.000
==== e(   6) =   -23.32517 eV ==== 
     psi = 0.327*[#  10]+0.326*[#   1]+0.050*[#  13]+0.050*[#  14]+0.050*[#   4]
          +0.050*[#   5]+0.037*[#   2]+0.037*[#   3]+0.037*[#  11]+0.037*[#  12]
          
    |psi|^2 = 1.000
==== e(   7) =   -23.26953 eV ==== 
     psi = 0.158*[#  11]+0.158*[#  12]+0.158*[#   2]+0.158*[#   3]+0.092*[#   4]
          +0.092*[#   5]+0.092*[#  13]+0.092*[#  14]
    |psi|^2 = 1.000
==== e(   8) =   -23.26788 eV ==== 
     psi = 0.154*[#  11]+0.154*[#  12]+0.153*[#   2]+0.153*[#   3]+0.066*[#   1]
          +0.066*[#  10]+0.063*[#   4]+0.063*[#   5]+0.063*[#  13]+0.063*[#  14]
          
    |psi|^2 = 1.000
==== e(   9) =   -23.15348 eV ==== 
     psi = 0.182*[#  13]+0.182*[#  14]+0.182*[#   4]+0.182*[#   5]+0.051*[#   2]
          +0.051*[#   3]+0.051*[#  11]+0.051*[#  12]+0.034*[#   1]+0.034*[#  10]
          
    |psi|^2 = 1.000
==== e(  10) =   -23.12870 eV ==== 
     psi = 0.203*[#  13]+0.203*[#  14]+0.203*[#   4]+0.203*[#   5]+0.047*[#   2]
          +0.047*[#   3]+0.047*[#  11]+0.047*[#  12]
    |psi|^2 = 1.000
==== e(  11) =   -10.85380 eV ==== 
     psi = 0.436*[#   6]+0.436*[#  15]+0.026*[#   8]+0.026*[#   9]+0.026*[#  17]
          +0.026*[#  18]+0.010*[#   7]+0.010*[#  16]
    |psi|^2 = 0.998
==== e(  12) =    -6.47717 eV ==== 
     psi = 0.336*[#   6]+0.336*[#  15]+0.071*[#   8]+0.071*[#   9]+0.071*[#  17]
          +0.071*[#  18]+0.020*[#   7]+0.020*[#  16]
    |psi|^2 = 0.996
==== e(  13) =    -3.65557 eV ==== 
     psi = 0.345*[#   7]+0.345*[#  16]+0.070*[#   8]+0.070*[#   9]+0.070*[#  17]
          +0.070*[#  18]+0.011*[#   6]+0.011*[#  15]
    |psi|^2 = 0.995
==== e(  14) =    -3.12632 eV ==== 
     psi = 0.248*[#  17]+0.248*[#  18]+0.248*[#   8]+0.248*[#   9]
    |psi|^2 = 0.996
==== e(  15) =    -0.72733 eV ==== 
     psi = 0.144*[#   7]+0.144*[#  16]+0.113*[#   8]+0.113*[#   9]+0.113*[#  17]
          +0.113*[#  18]+0.101*[#   6]+0.101*[#  15]
    |psi|^2 = 0.945
==== e(  16) =    -0.17490 eV ==== 
     psi = 0.359*[#   7]+0.359*[#  16]+0.034*[#   6]+0.034*[#  15]+0.026*[#   8]
          +0.026*[#   9]+0.026*[#  17]+0.026*[#  18]
    |psi|^2 = 0.890
==== e(  17) =     1.65068 eV ==== 
     psi = 0.090*[#   8]+0.090*[#   9]+0.090*[#  17]+0.090*[#  18]+0.041*[#   6]
          +0.041*[#  15]+0.021*[#   7]+0.021*[#  16]
    |psi|^2 = 0.484
==== e(  18) =     2.46318 eV ==== 
     psi = 0.005*[#   8]+0.005*[#   9]+0.005*[#  17]+0.005*[#  18]+0.003*[#   6]
          +0.003*[#  15]+0.002*[#   7]+0.002*[#  16]
    |psi|^2 = 0.029

 k =   0.0000000000  0.3367876570  0.0000000000
==== e(   1) =   -23.54710 eV ==== 
     psi = 0.164*[#   4]+0.164*[#   5]+0.164*[#  13]+0.164*[#  14]+0.086*[#   2]
          +0.086*[#   3]+0.085*[#  11]+0.085*[#  12]
    |psi|^2 = 1.000
==== e(   2) =   -23.54379 eV ==== 
     psi = 0.117*[#   1]+0.117*[#  10]+0.104*[#   4]+0.104*[#   5]+0.104*[#  13]
          +0.104*[#  14]+0.087*[#   2]+0.087*[#   3]+0.087*[#  11]+0.087*[#  12]
          
    |psi|^2 = 1.000
==== e(   3) =   -23.48526 eV ==== 
     psi = 0.326*[#   1]+0.326*[#  10]+0.086*[#   2]+0.086*[#   3]+0.086*[#  11]
          +0.086*[#  12]+0.001*[#   4]+0.001*[#   5]+0.001*[#  13]+0.001*[#  14]
          
    |psi|^2 = 1.000
==== e(   4) =   -23.41699 eV ==== 
     psi = 0.209*[#   2]+0.209*[#   3]+0.209*[#  11]+0.209*[#  12]+0.041*[#   4]
          +0.041*[#   5]+0.041*[#  13]+0.041*[#  14]
    |psi|^2 = 1.000
==== e(   5) =   -23.40406 eV ==== 
     psi = 0.132*[#   1]+0.132*[#  10]+0.108*[#   4]+0.108*[#   5]+0.108*[#  13]
          +0.108*[#  14]+0.076*[#   2]+0.076*[#   3]+0.076*[#  11]+0.076*[#  12]
          
    |psi|^2 = 1.000
==== e(   6) =   -23.31337 eV ==== 
     psi = 0.277*[#  10]+0.276*[#   1]+0.060*[#  13]+0.060*[#  14]+0.060*[#   4]
          +0.060*[#   5]+0.051*[#   2]+0.051*[#   3]+0.051*[#  11]+0.051*[#  12]
          
    |psi|^2 = 1.000
==== e(   7) =   -23.27773 eV ==== 
     psi = 0.164*[#  11]+0.164*[#  12]+0.164*[#   2]+0.164*[#   3]+0.086*[#   4]
          +0.086*[#   5]+0.086*[#  13]+0.086*[#  14]
    |psi|^2 = 1.000
==== e(   8) =   -23.27453 eV ==== 
     psi = 0.157*[#  11]+0.157*[#  12]+0.156*[#   2]+0.156*[#   3]+0.106*[#   1]
          +0.106*[#  10]+0.040*[#   4]+0.040*[#   5]+0.040*[#  13]+0.040*[#  14]
          
    |psi|^2 = 1.000
==== e(   9) =   -23.15408 eV ==== 
     psi = 0.185*[#  13]+0.185*[#  14]+0.185*[#   4]+0.185*[#   5]+0.043*[#   2]
          +0.043*[#   3]+0.043*[#  11]+0.043*[#  12]+0.042*[#   1]+0.042*[#  10]
          
    |psi|^2 = 1.000
==== e(  10) =   -23.12206 eV ==== 
     psi = 0.208*[#  13]+0.208*[#  14]+0.208*[#   4]+0.208*[#   5]+0.041*[#   2]
          +0.041*[#   3]+0.041*[#  11]+0.041*[#  12]
    |psi|^2 = 1.000
==== e(  11) =   -10.67433 eV ==== 
     psi = 0.425*[#   6]+0.425*[#  15]+0.032*[#   8]+0.032*[#   9]+0.032*[#  17]
          +0.032*[#  18]+0.009*[#   7]+0.009*[#  16]
    |psi|^2 = 0.997
==== e(  12) =    -6.87684 eV ==== 
     psi = 0.330*[#   6]+0.330*[#  15]+0.079*[#   8]+0.079*[#   9]+0.079*[#  17]
          +0.079*[#  18]+0.009*[#   7]+0.009*[#  16]
    |psi|^2 = 0.997
==== e(  13) =    -3.58461 eV ==== 
     psi = 0.350*[#   7]+0.350*[#  16]+0.062*[#   8]+0.062*[#   9]+0.062*[#  17]
          +0.062*[#  18]+0.023*[#   6]+0.023*[#  15]
    |psi|^2 = 0.994
==== e(  14) =    -3.26739 eV ==== 
     psi = 0.248*[#   8]+0.248*[#   9]+0.249*[#  17]+0.249*[#  18]
    |psi|^2 = 0.996
==== e(  15) =    -0.88145 eV ==== 
     psi = 0.182*[#   7]+0.182*[#  16]+0.100*[#   8]+0.100*[#   9]+0.100*[#  17]
          +0.100*[#  18]+0.091*[#   6]+0.091*[#  15]
    |psi|^2 = 0.948
==== e(  16) =    -0.25504 eV ==== 
     psi = 0.331*[#   7]+0.331*[#  16]+0.044*[#   6]+0.044*[#  15]+0.038*[#   8]
          +0.038*[#   9]+0.038*[#  17]+0.038*[#  18]
    |psi|^2 = 0.904
==== e(  17) =     1.80484 eV ==== 
     psi = 0.058*[#   8]+0.058*[#   9]+0.058*[#  17]+0.058*[#  18]+0.026*[#   6]
          +0.026*[#  15]+0.016*[#   7]+0.016*[#  16]
    |psi|^2 = 0.316
==== e(  18) =     2.66560 eV ==== 

    |psi|^2 = 0.006

 k =   0.0000000000  0.3849001795  0.0000000000
==== e(   1) =   -23.54916 eV ==== 
     psi = 0.169*[#   4]+0.169*[#   5]+0.169*[#  13]+0.169*[#  14]+0.080*[#   2]
          +0.080*[#   3]+0.080*[#  11]+0.080*[#  12]
    |psi|^2 = 1.000
==== e(   2) =   -23.54299 eV ==== 
     psi = 0.138*[#   1]+0.138*[#  10]+0.099*[#   4]+0.099*[#   5]+0.099*[#  13]
          +0.099*[#  14]+0.082*[#   2]+0.082*[#   3]+0.082*[#  11]+0.082*[#  12]
          
    |psi|^2 = 1.000
==== e(   3) =   -23.49192 eV ==== 
     psi = 0.325*[#   1]+0.324*[#  10]+0.085*[#   2]+0.085*[#   3]+0.084*[#  11]
          +0.084*[#  12]+0.003*[#   4]+0.003*[#   5]+0.003*[#  13]+0.003*[#  14]
          
    |psi|^2 = 1.000
==== e(   4) =   -23.41198 eV ==== 
     psi = 0.214*[#   2]+0.214*[#   3]+0.213*[#  11]+0.213*[#  12]+0.036*[#   4]
          +0.036*[#   5]+0.036*[#  13]+0.036*[#  14]
    |psi|^2 = 1.000
==== e(   5) =   -23.40302 eV ==== 
     psi = 0.122*[#   4]+0.122*[#   5]+0.122*[#  13]+0.122*[#  14]+0.108*[#   1]
          +0.108*[#  10]+0.074*[#   2]+0.074*[#   3]+0.073*[#  11]+0.073*[#  12]
          
    |psi|^2 = 1.000
==== e(   6) =   -23.30305 eV ==== 
     psi = 0.213*[#  10]+0.212*[#   1]+0.073*[#   2]+0.073*[#   3]+0.073*[#  11]
          +0.073*[#  12]+0.070*[#  13]+0.070*[#  14]+0.070*[#   4]+0.070*[#   5]
          
    |psi|^2 = 1.000
==== e(   7) =   -23.28478 eV ==== 
     psi = 0.170*[#  11]+0.170*[#  12]+0.169*[#   2]+0.169*[#   3]+0.081*[#   4]
          +0.081*[#   5]+0.081*[#  13]+0.081*[#  14]
    |psi|^2 = 1.000
==== e(   8) =   -23.27828 eV ==== 
     psi = 0.168*[#   1]+0.168*[#  10]+0.152*[#  11]+0.152*[#  12]+0.151*[#   2]
          +0.151*[#   3]+0.014*[#   4]+0.014*[#   5]+0.014*[#  13]+0.014*[#  14]
          
    |psi|^2 = 1.000
==== e(   9) =   -23.15593 eV ==== 
     psi = 0.190*[#  13]+0.190*[#  14]+0.190*[#   4]+0.190*[#   5]+0.049*[#   1]
          +0.049*[#  10]+0.035*[#   2]+0.035*[#   3]+0.035*[#  11]+0.035*[#  12]
          
    |psi|^2 = 1.000
==== e(  10) =   -23.11641 eV ==== 
     psi = 0.213*[#  13]+0.213*[#  14]+0.213*[#   4]+0.213*[#   5]+0.036*[#   2]
          +0.036*[#   3]+0.036*[#  11]+0.036*[#  12]
    |psi|^2 = 1.000
==== e(  11) =   -10.47531 eV ==== 
     psi = 0.416*[#   6]+0.416*[#  15]+0.037*[#   8]+0.037*[#   9]+0.037*[#  17]
          +0.037*[#  18]+0.007*[#   7]+0.007*[#  16]
    |psi|^2 = 0.997
==== e(  12) =    -7.27358 eV ==== 
     psi = 0.325*[#   6]+0.325*[#  15]+0.084*[#   8]+0.084*[#   9]+0.084*[#  17]
          +0.084*[#  18]+0.004*[#   7]+0.004*[#  16]
    |psi|^2 = 0.997
==== e(  13) =    -3.47488 eV ==== 
     psi = 0.345*[#   7]+0.345*[#  16]+0.058*[#   8]+0.058*[#   9]+0.058*[#  17]
          +0.058*[#  18]+0.035*[#   6]+0.035*[#  15]
    |psi|^2 = 0.993
==== e(  14) =    -3.38884 eV ==== 
     psi = 0.249*[#   8]+0.249*[#   9]+0.249*[#  17]+0.249*[#  18]
    |psi|^2 = 0.997
==== e(  15) =    -1.05202 eV ==== 
     psi = 0.227*[#   7]+0.227*[#  16]+0.084*[#   8]+0.084*[#   9]+0.084*[#  17]
          +0.084*[#  18]+0.080*[#   6]+0.080*[#  15]
    |psi|^2 = 0.953
==== e(  16) =    -0.35908 eV ==== 
     psi = 0.293*[#   7]+0.294*[#  16]+0.056*[#   6]+0.056*[#  15]+0.051*[#   8]
          +0.051*[#   9]+0.051*[#  17]+0.051*[#  18]
    |psi|^2 = 0.904
==== e(  17) =     1.93636 eV ==== 
     psi = 0.044*[#   8]+0.044*[#   9]+0.044*[#  17]+0.044*[#  18]+0.018*[#   6]
          +0.018*[#  15]+0.016*[#   7]+0.016*[#  16]
    |psi|^2 = 0.244
==== e(  18) =     2.88071 eV ==== 
     psi = 0.003*[#   7]+0.003*[#  16]
    |psi|^2 = 0.006

 k =   0.0000000000  0.4330127019  0.0000000000
==== e(   1) =   -23.55072 eV ==== 
     psi = 0.174*[#   4]+0.174*[#   5]+0.174*[#  13]+0.174*[#  14]+0.076*[#   2]
          +0.076*[#   3]+0.076*[#  11]+0.076*[#  12]
    |psi|^2 = 1.000
==== e(   2) =   -23.54103 eV ==== 
     psi = 0.158*[#   1]+0.158*[#  10]+0.095*[#   4]+0.095*[#   5]+0.095*[#  13]
          +0.095*[#  14]+0.076*[#   2]+0.076*[#   3]+0.076*[#  11]+0.076*[#  12]
          
    |psi|^2 = 1.000
==== e(   3) =   -23.49849 eV ==== 
     psi = 0.318*[#   1]+0.318*[#  10]+0.085*[#   2]+0.085*[#   3]+0.085*[#  11]
          +0.085*[#  12]+0.006*[#   4]+0.006*[#   5]+0.006*[#  13]+0.006*[#  14]
          
    |psi|^2 = 1.000
==== e(   4) =   -23.40794 eV ==== 
     psi = 0.218*[#   2]+0.218*[#   3]+0.217*[#  11]+0.217*[#  12]+0.032*[#   4]
          +0.032*[#   5]+0.032*[#  13]+0.032*[#  14]
    |psi|^2 = 1.000
==== e(   5) =   -23.40291 eV ==== 
     psi = 0.134*[#   4]+0.134*[#   5]+0.134*[#  13]+0.134*[#  14]+0.086*[#   1]
          +0.086*[#  10]+0.072*[#   2]+0.072*[#   3]+0.072*[#  11]+0.072*[#  12]
          
    |psi|^2 = 1.000
==== e(   6) =   -23.29729 eV ==== 
     psi = 0.144*[#  10]+0.143*[#   1]+0.111*[#   2]+0.111*[#   3]+0.111*[#  11]
          +0.111*[#  12]+0.067*[#  13]+0.067*[#  14]+0.067*[#   4]+0.067*[#   5]
          
    |psi|^2 = 1.000
==== e(   7) =   -23.29047 eV ==== 
     psi = 0.174*[#  11]+0.174*[#  12]+0.174*[#   2]+0.174*[#   3]+0.076*[#   4]
          +0.076*[#   5]+0.076*[#  13]+0.076*[#  14]
    |psi|^2 = 1.000
==== e(   8) =   -23.27690 eV ==== 
     psi = 0.239*[#   1]+0.239*[#  10]+0.130*[#  11]+0.130*[#  12]+0.129*[#   2]
          +0.129*[#   3]
    |psi|^2 = 1.000
==== e(   9) =   -23.15864 eV ==== 
     psi = 0.196*[#  13]+0.196*[#  14]+0.196*[#   4]+0.196*[#   5]+0.055*[#   1]
          +0.055*[#  10]+0.026*[#   2]+0.026*[#   3]+0.026*[#  11]+0.026*[#  12]
          
    |psi|^2 = 1.000
==== e(  10) =   -23.11189 eV ==== 
     psi = 0.217*[#  13]+0.217*[#  14]+0.217*[#   4]+0.217*[#   5]+0.032*[#   2]
          +0.032*[#   3]+0.032*[#  11]+0.032*[#  12]
    |psi|^2 = 1.000
==== e(  11) =   -10.26489 eV ==== 
     psi = 0.409*[#   6]+0.409*[#  15]+0.041*[#   8]+0.041*[#   9]+0.041*[#  17]
          +0.041*[#  18]+0.006*[#   7]+0.006*[#  16]
    |psi|^2 = 0.997
==== e(  12) =    -7.64678 eV ==== 
     psi = 0.322*[#   6]+0.322*[#  15]+0.087*[#   8]+0.087*[#   9]+0.087*[#  17]
          +0.087*[#  18]+0.001*[#   7]+0.001*[#  16]
    |psi|^2 = 0.997
==== e(  13) =    -3.48668 eV ==== 
     psi = 0.249*[#   8]+0.249*[#   9]+0.249*[#  17]+0.249*[#  18]
    |psi|^2 = 0.997
==== e(  14) =    -3.34617 eV ==== 
     psi = 0.334*[#   7]+0.334*[#  16]+0.058*[#   8]+0.058*[#   9]+0.058*[#  17]
          +0.058*[#  18]+0.047*[#   6]+0.047*[#  15]
    |psi|^2 = 0.992
==== e(  15) =    -1.22317 eV ==== 
     psi = 0.278*[#   7]+0.278*[#  16]+0.067*[#   8]+0.067*[#   9]+0.067*[#  17]
          +0.067*[#  18]+0.066*[#   6]+0.066*[#  15]
    |psi|^2 = 0.956
==== e(  16) =    -0.46634 eV ==== 
     psi = 0.251*[#   7]+0.251*[#  16]+0.070*[#   6]+0.070*[#  15]+0.063*[#   8]
          +0.063*[#   9]+0.063*[#  17]+0.063*[#  18]
    |psi|^2 = 0.897
==== e(  17) =     2.08468 eV ==== 
     psi = 0.039*[#   8]+0.039*[#   9]+0.039*[#  17]+0.039*[#  18]+0.023*[#   7]
          +0.023*[#  16]+0.013*[#   6]+0.013*[#  15]
    |psi|^2 = 0.228
==== e(  18) =     3.09917 eV ==== 
     psi = 0.008*[#   7]+0.008*[#  16]
    |psi|^2 = 0.018

 k =   0.0000000000  0.4811252243  0.0000000000
==== e(   1) =   -23.55178 eV ==== 
     psi = 0.177*[#   4]+0.177*[#   5]+0.177*[#  13]+0.177*[#  14]+0.072*[#   2]
          +0.072*[#   3]+0.072*[#  11]+0.072*[#  12]
    |psi|^2 = 1.000
==== e(   2) =   -23.53826 eV ==== 
     psi = 0.176*[#   1]+0.176*[#  10]+0.091*[#   4]+0.091*[#   5]+0.091*[#  13]
          +0.091*[#  14]+0.070*[#   2]+0.070*[#   3]+0.070*[#  11]+0.070*[#  12]
          
    |psi|^2 = 1.000
==== e(   3) =   -23.50457 eV ==== 
     psi = 0.308*[#   1]+0.308*[#  10]+0.087*[#   2]+0.087*[#   3]+0.087*[#  11]
          +0.087*[#  12]+0.009*[#   4]+0.009*[#   5]+0.009*[#  13]+0.009*[#  14]
          
    |psi|^2 = 1.000
==== e(   4) =   -23.40500 eV ==== 
     psi = 0.221*[#   2]+0.221*[#   3]+0.220*[#  11]+0.220*[#  12]+0.030*[#   4]
          +0.030*[#   5]+0.029*[#  13]+0.029*[#  14]
    |psi|^2 = 1.000
==== e(   5) =   -23.40328 eV ==== 
     psi = 0.143*[#   4]+0.143*[#   5]+0.143*[#  13]+0.143*[#  14]+0.072*[#   2]
          +0.072*[#   3]+0.072*[#  11]+0.072*[#  12]+0.069*[#   1]+0.068*[#  10]
          
    |psi|^2 = 1.000
==== e(   6) =   -23.29639 eV ==== 
     psi = 0.138*[#  11]+0.138*[#  12]+0.138*[#   2]+0.138*[#   3]+0.129*[#  10]
          +0.128*[#   1]+0.048*[#  13]+0.048*[#  14]+0.048*[#   4]+0.048*[#   5]
          
    |psi|^2 = 1.000
==== e(   7) =   -23.29463 eV ==== 
     psi = 0.178*[#  11]+0.178*[#  12]+0.177*[#   2]+0.177*[#   3]+0.073*[#   4]
          +0.073*[#   5]+0.073*[#  13]+0.073*[#  14]
    |psi|^2 = 1.000
==== e(   8) =   -23.27122 eV ==== 
     psi = 0.259*[#  10]+0.258*[#   1]+0.116*[#  11]+0.116*[#  12]+0.115*[#   2]
          +0.115*[#   3]+0.005*[#   4]+0.005*[#   5]+0.005*[#  13]+0.005*[#  14]
          
    |psi|^2 = 1.000
==== e(   9) =   -23.16160 eV ==== 
     psi = 0.203*[#  13]+0.203*[#  14]+0.203*[#   4]+0.203*[#   5]+0.060*[#   1]
          +0.060*[#  10]+0.017*[#   2]+0.017*[#   3]+0.017*[#  11]+0.017*[#  12]
          
    |psi|^2 = 1.000
==== e(  10) =   -23.10860 eV ==== 
     psi = 0.220*[#  13]+0.220*[#  14]+0.220*[#   4]+0.220*[#   5]+0.029*[#   2]
          +0.029*[#   3]+0.029*[#  11]+0.029*[#  12]
    |psi|^2 = 1.000
==== e(  11) =   -10.05972 eV ==== 
     psi = 0.405*[#   6]+0.405*[#  15]+0.044*[#   8]+0.044*[#   9]+0.044*[#  17]
          +0.044*[#  18]+0.005*[#   7]+0.005*[#  16]
    |psi|^2 = 0.997
==== e(  12) =    -7.97236 eV ==== 
     psi = 0.318*[#   6]+0.318*[#  15]+0.089*[#   8]+0.089*[#   9]+0.089*[#  17]
          +0.089*[#  18]
    |psi|^2 = 0.997
==== e(  13) =    -3.55826 eV ==== 
     psi = 0.249*[#   8]+0.249*[#   9]+0.249*[#  17]+0.249*[#  18]
    |psi|^2 = 0.997
==== e(  14) =    -3.21992 eV ==== 
     psi = 0.318*[#   7]+0.318*[#  16]+0.059*[#   8]+0.059*[#   9]+0.059*[#  17]
          +0.059*[#  18]+0.059*[#   6]+0.059*[#  15]
    |psi|^2 = 0.992
==== e(  15) =    -1.37851 eV ==== 
     psi = 0.327*[#   7]+0.327*[#  16]+0.051*[#   6]+0.051*[#  15]+0.051*[#   8]
          +0.051*[#   9]+0.051*[#  17]+0.051*[#  18]
    |psi|^2 = 0.958
==== e(  16) =    -0.55606 eV ==== 
     psi = 0.214*[#   7]+0.214*[#  16]+0.083*[#   6]+0.083*[#  15]+0.073*[#   8]
          +0.073*[#   9]+0.073*[#  17]+0.073*[#  18]
    |psi|^2 = 0.890
==== e(  17) =     2.24930 eV ==== 
     psi = 0.039*[#   8]+0.039*[#   9]+0.039*[#  17]+0.039*[#  18]+0.034*[#   7]
          +0.034*[#  16]+0.011*[#   6]+0.011*[#  15]
    |psi|^2 = 0.248
==== e(  18) =     3.27827 eV ==== 
     psi = 0.016*[#   7]+0.016*[#  16]+0.004*[#   8]+0.004*[#   9]+0.004*[#  17]
          +0.004*[#  18]
    |psi|^2 = 0.049

 k =   0.0000000000  0.5292377468  0.0000000000
==== e(   1) =   -23.55240 eV ==== 
     psi = 0.179*[#   4]+0.179*[#   5]+0.179*[#  13]+0.179*[#  14]+0.070*[#   2]
          +0.070*[#   3]+0.070*[#  11]+0.070*[#  12]
    |psi|^2 = 1.000
==== e(   2) =   -23.53547 eV ==== 
     psi = 0.190*[#   1]+0.189*[#  10]+0.091*[#   4]+0.091*[#   5]+0.091*[#  13]
          +0.091*[#  14]+0.064*[#   2]+0.064*[#   3]+0.064*[#  11]+0.064*[#  12]
          
    |psi|^2 = 1.000
==== e(   3) =   -23.50935 eV ==== 
     psi = 0.299*[#   1]+0.299*[#  10]+0.091*[#   2]+0.091*[#   3]+0.091*[#  11]
          +0.091*[#  12]+0.009*[#   4]+0.009*[#   5]+0.009*[#  13]+0.009*[#  14]
          
    |psi|^2 = 1.000
==== e(   4) =   -23.40370 eV ==== 
     psi = 0.149*[#   4]+0.149*[#   5]+0.149*[#  13]+0.149*[#  14]+0.072*[#   2]
          +0.072*[#   3]+0.072*[#  11]+0.072*[#  12]+0.057*[#   1]+0.057*[#  10]
          
    |psi|^2 = 1.000
==== e(   5) =   -23.40322 eV ==== 
     psi = 0.222*[#   2]+0.222*[#   3]+0.222*[#  11]+0.222*[#  12]+0.028*[#   4]
          +0.028*[#   5]+0.028*[#  13]+0.028*[#  14]
    |psi|^2 = 1.000
==== e(   6) =   -23.29716 eV ==== 
     psi = 0.180*[#  11]+0.180*[#  12]+0.179*[#   2]+0.179*[#   3]+0.070*[#   4]
          +0.070*[#   5]+0.071*[#  13]+0.071*[#  14]
    |psi|^2 = 1.000
==== e(   7) =   -23.29685 eV ==== 
     psi = 0.147*[#  11]+0.147*[#  12]+0.147*[#   2]+0.147*[#   3]+0.136*[#  10]
          +0.136*[#   1]+0.034*[#  13]+0.034*[#  14]+0.034*[#   4]+0.034*[#   5]
          
    |psi|^2 = 1.000
==== e(   8) =   -23.26603 eV ==== 
     psi = 0.255*[#  10]+0.254*[#   1]+0.115*[#  11]+0.115*[#  12]+0.115*[#   2]
          +0.115*[#   3]+0.007*[#   4]+0.007*[#   5]+0.007*[#  13]+0.007*[#  14]
          
    |psi|^2 = 1.000
==== e(   9) =   -23.16395 eV ==== 
     psi = 0.208*[#  13]+0.208*[#  14]+0.208*[#   4]+0.208*[#   5]+0.063*[#   1]
          +0.063*[#  10]+0.010*[#   2]+0.010*[#   3]+0.010*[#  11]+0.010*[#  12]
          
    |psi|^2 = 1.000
==== e(  10) =   -23.10659 eV ==== 
     psi = 0.222*[#  13]+0.222*[#  14]+0.222*[#   4]+0.222*[#   5]+0.028*[#   2]
          +0.028*[#   3]+0.028*[#  11]+0.028*[#  12]
    |psi|^2 = 1.000
==== e(  11) =    -9.89446 eV ==== 
     psi = 0.405*[#   6]+0.404*[#  15]+0.044*[#   8]+0.044*[#   9]+0.044*[#  17]
          +0.044*[#  18]+0.004*[#   7]+0.004*[#  16]
    |psi|^2 = 0.997
==== e(  12) =    -8.21136 eV ==== 
     psi = 0.314*[#   6]+0.314*[#  15]+0.092*[#   8]+0.092*[#   9]+0.092*[#  17]
          +0.092*[#  18]
    |psi|^2 = 0.997
==== e(  13) =    -3.60184 eV ==== 
     psi = 0.249*[#   8]+0.249*[#   9]+0.249*[#  17]+0.249*[#  18]
    |psi|^2 = 0.997
==== e(  14) =    -3.12332 eV ==== 
     psi = 0.304*[#   7]+0.304*[#  16]+0.069*[#   6]+0.069*[#  15]+0.062*[#   8]
          +0.062*[#   9]+0.062*[#  17]+0.062*[#  18]
    |psi|^2 = 0.992
==== e(  15) =    -1.49287 eV ==== 
     psi = 0.363*[#   7]+0.363*[#  16]+0.039*[#   8]+0.039*[#   9]+0.039*[#  17]
          +0.039*[#  18]+0.038*[#   6]+0.038*[#  15]
    |psi|^2 = 0.958
==== e(  16) =    -0.61429 eV ==== 
     psi = 0.190*[#   7]+0.190*[#  16]+0.092*[#   6]+0.092*[#  15]+0.080*[#   8]
          +0.080*[#   9]+0.080*[#  17]+0.080*[#  18]
    |psi|^2 = 0.885
==== e(  17) =     2.39928 eV ==== 
     psi = 0.047*[#   7]+0.047*[#  16]+0.043*[#   8]+0.043*[#   9]+0.043*[#  17]
          +0.043*[#  18]+0.011*[#   6]+0.011*[#  15]
    |psi|^2 = 0.287
==== e(  18) =     3.33553 eV ==== 
     psi = 0.011*[#   7]+0.011*[#  16]+0.004*[#   8]+0.004*[#   9]+0.004*[#  17]
          +0.004*[#  18]
    |psi|^2 = 0.039

 k =   0.0000000000 -0.5773502692  0.0000000000
==== e(   1) =   -23.55260 eV ==== 
     psi = 0.180*[#   4]+0.180*[#   5]+0.180*[#  13]+0.180*[#  14]+0.070*[#   2]
          +0.070*[#   3]+0.070*[#  11]+0.070*[#  12]
    |psi|^2 = 1.000
==== e(   2) =   -23.53418 eV ==== 
     psi = 0.195*[#   1]+0.194*[#  10]+0.091*[#   4]+0.091*[#   5]+0.091*[#  13]
          +0.091*[#  14]+0.061*[#   2]+0.061*[#   3]+0.061*[#  11]+0.061*[#  12]
          
    |psi|^2 = 1.000
==== e(   3) =   -23.51132 eV ==== 
     psi = 0.296*[#   1]+0.295*[#  10]+0.093*[#   2]+0.093*[#   3]+0.093*[#  11]
          +0.093*[#  12]+0.009*[#   4]+0.009*[#   5]+0.009*[#  13]+0.009*[#  14]
          
    |psi|^2 = 1.000
==== e(   4) =   -23.40388 eV ==== 
     psi = 0.151*[#   4]+0.151*[#   5]+0.151*[#  13]+0.151*[#  14]+0.072*[#   2]
          +0.072*[#   3]+0.072*[#  11]+0.072*[#  12]+0.053*[#   1]+0.053*[#  10]
          
    |psi|^2 = 1.000
==== e(   5) =   -23.40263 eV ==== 
     psi = 0.223*[#   2]+0.223*[#   3]+0.222*[#  11]+0.222*[#  12]+0.027*[#   4]
          +0.027*[#   5]+0.027*[#  13]+0.027*[#  14]
    |psi|^2 = 1.000
==== e(   6) =   -23.29801 eV ==== 
     psi = 0.181*[#  11]+0.181*[#  12]+0.180*[#   2]+0.180*[#   3]+0.070*[#   4]
          +0.070*[#   5]+0.070*[#  13]+0.070*[#  14]
    |psi|^2 = 1.000
==== e(   7) =   -23.29709 eV ==== 
     psi = 0.150*[#  11]+0.150*[#  12]+0.149*[#   2]+0.149*[#   3]+0.140*[#  10]
          +0.140*[#   1]+0.030*[#  13]+0.030*[#  14]+0.030*[#   4]+0.030*[#   5]
          
    |psi|^2 = 1.000
==== e(   8) =   -23.26405 eV ==== 
     psi = 0.252*[#  10]+0.252*[#   1]+0.117*[#  11]+0.117*[#  12]+0.116*[#   2]
          +0.116*[#   3]+0.007*[#   4]+0.007*[#   5]+0.007*[#  13]+0.007*[#  14]
          
    |psi|^2 = 1.000
==== e(   9) =   -23.16485 eV ==== 
     psi = 0.211*[#  13]+0.211*[#  14]+0.210*[#   4]+0.210*[#   5]+0.064*[#   1]
          +0.064*[#  10]+0.007*[#   2]+0.007*[#   3]+0.007*[#  11]+0.007*[#  12]
          
    |psi|^2 = 1.000
==== e(  10) =   -23.10592 eV ==== 
     psi = 0.223*[#  13]+0.223*[#  14]+0.223*[#   4]+0.223*[#   5]+0.027*[#   2]
          +0.027*[#   3]+0.027*[#  11]+0.027*[#  12]
    |psi|^2 = 1.000
==== e(  11) =    -9.82700 eV ==== 
     psi = 0.405*[#   6]+0.405*[#  15]+0.044*[#   8]+0.044*[#   9]+0.044*[#  17]
          +0.044*[#  18]+0.004*[#   7]+0.004*[#  16]
    |psi|^2 = 0.997
==== e(  12) =    -8.30363 eV ==== 
     psi = 0.312*[#   6]+0.312*[#  15]+0.093*[#   8]+0.093*[#   9]+0.093*[#  17]
          +0.093*[#  18]
    |psi|^2 = 0.997
==== e(  13) =    -3.61647 eV ==== 
     psi = 0.249*[#   8]+0.249*[#   9]+0.249*[#  17]+0.249*[#  18]
    |psi|^2 = 0.997
==== e(  14) =    -3.08623 eV ==== 
     psi = 0.297*[#   7]+0.297*[#  16]+0.073*[#   6]+0.073*[#  15]+0.063*[#   8]
          +0.063*[#   9]+0.063*[#  17]+0.063*[#  18]
    |psi|^2 = 0.993
==== e(  15) =    -1.53603 eV ==== 
     psi = 0.377*[#   7]+0.377*[#  16]+0.035*[#   8]+0.035*[#   9]+0.035*[#  17]
          +0.035*[#  18]+0.032*[#   6]+0.032*[#  15]
    |psi|^2 = 0.958
==== e(  16) =    -0.63432 eV ==== 
     psi = 0.181*[#   7]+0.181*[#  16]+0.095*[#   6]+0.095*[#  15]+0.082*[#   8]
          +0.082*[#   9]+0.082*[#  17]+0.082*[#  18]
    |psi|^2 = 0.883
==== e(  17) =     2.46660 eV ==== 
     psi = 0.054*[#  16]+0.054*[#   7]+0.046*[#   8]+0.046*[#   9]+0.046*[#  17]
          +0.046*[#  18]+0.011*[#   6]+0.011*[#  15]
    |psi|^2 = 0.314
==== e(  18) =     3.38767 eV ==== 
     psi = 0.191*[#   8]+0.191*[#   9]+0.191*[#  17]+0.191*[#  18]
    |psi|^2 = 0.765

 k =   0.0416666667  0.0721687836  0.0000000000
==== e(   1) =   -23.53161 eV ==== 
     psi = 0.128*[#   4]+0.128*[#   5]+0.128*[#  13]+0.128*[#  14]+0.115*[#   2]
          +0.115*[#   3]+0.115*[#  11]+0.115*[#  12]+0.013*[#   1]+0.013*[#  10]
          
    |psi|^2 = 1.000
==== e(   2) =   -23.53132 eV ==== 
     psi = 0.134*[#   4]+0.134*[#   5]+0.134*[#  13]+0.134*[#  14]+0.115*[#   2]
          +0.115*[#   3]+0.115*[#  11]+0.115*[#  12]
    |psi|^2 = 1.000
==== e(   3) =   -23.45516 eV ==== 
     psi = 0.159*[#   1]+0.158*[#  10]+0.132*[#   2]+0.132*[#   3]+0.132*[#  11]
          +0.132*[#  12]+0.039*[#   4]+0.039*[#   5]+0.039*[#  13]+0.039*[#  14]
          
    |psi|^2 = 1.000
==== e(   4) =   -23.44746 eV ==== 
     psi = 0.180*[#   2]+0.180*[#   3]+0.179*[#  11]+0.179*[#  12]+0.070*[#   4]
          +0.070*[#   5]+0.070*[#  13]+0.070*[#  14]+0.001*[#   1]+0.001*[#  10]
          
    |psi|^2 = 1.000
==== e(   5) =   -23.43004 eV ==== 
     psi = 0.336*[#   1]+0.335*[#  10]+0.047*[#   2]+0.047*[#   3]+0.047*[#  11]
          +0.047*[#  12]+0.035*[#   4]+0.035*[#   5]+0.035*[#  13]+0.035*[#  14]
          
    |psi|^2 = 1.000
==== e(   6) =   -23.36272 eV ==== 
     psi = 0.485*[#  10]+0.483*[#   1]+0.006*[#   4]+0.006*[#   5]+0.006*[#  13]
          +0.006*[#  14]+0.002*[#   2]+0.002*[#   3]+0.002*[#  11]+0.002*[#  12]
          
    |psi|^2 = 1.000
==== e(   7) =   -23.23106 eV ==== 
     psi = 0.134*[#  11]+0.134*[#  12]+0.134*[#   2]+0.134*[#   3]+0.115*[#   4]
          +0.115*[#   5]+0.115*[#  13]+0.115*[#  14]
    |psi|^2 = 1.000
==== e(   8) =   -23.23041 eV ==== 
     psi = 0.133*[#  11]+0.133*[#  12]+0.133*[#   2]+0.133*[#   3]+0.116*[#   4]
          +0.116*[#   5]+0.116*[#  13]+0.116*[#  14]+0.001*[#   1]+0.001*[#  10]
          
    |psi|^2 = 1.000
==== e(   9) =   -23.16459 eV ==== 
     psi = 0.175*[#  13]+0.175*[#  14]+0.175*[#   4]+0.175*[#   5]+0.072*[#   2]
          +0.072*[#   3]+0.072*[#  11]+0.072*[#  12]+0.005*[#   1]+0.005*[#  10]
          
    |psi|^2 = 1.000
==== e(  10) =   -23.16155 eV ==== 
     psi = 0.179*[#  13]+0.179*[#  14]+0.179*[#   4]+0.179*[#   5]+0.070*[#   2]
          +0.070*[#   3]+0.070*[#  11]+0.070*[#  12]
    |psi|^2 = 1.000
==== e(  11) =   -11.32824 eV ==== 
     psi = 0.478*[#   6]+0.478*[#  15]+0.014*[#   7]+0.014*[#  16]+0.003*[#   8]
          +0.003*[#   9]+0.003*[#  17]+0.003*[#  18]
    |psi|^2 = 0.997
==== e(  12) =    -5.34991 eV ==== 
     psi = 0.301*[#   6]+0.301*[#  15]+0.184*[#   7]+0.184*[#  16]+0.007*[#   8]
          +0.007*[#   9]+0.007*[#  17]+0.007*[#  18]
    |psi|^2 = 0.997
==== e(  13) =    -2.97766 eV ==== 
     psi = 0.157*[#   7]+0.157*[#  16]+0.151*[#   8]+0.151*[#   9]+0.151*[#  17]
          +0.151*[#  18]+0.036*[#   6]+0.036*[#  15]
    |psi|^2 = 0.992
==== e(  14) =    -2.50065 eV ==== 
     psi = 0.248*[#   8]+0.248*[#   9]+0.248*[#  17]+0.248*[#  18]
    |psi|^2 = 0.994
==== e(  15) =    -1.30936 eV ==== 
     psi = 0.155*[#   6]+0.155*[#  15]+0.151*[#   7]+0.151*[#  16]+0.090*[#   8]
          +0.090*[#   9]+0.090*[#  17]+0.090*[#  18]
    |psi|^2 = 0.975
==== e(  16) =    -0.06463 eV ==== 
     psi = 0.348*[#   7]+0.348*[#  16]+0.011*[#   6]+0.011*[#  15]
    |psi|^2 = 0.720
==== e(  17) =     1.01132 eV ==== 
     psi = 0.222*[#   8]+0.222*[#   9]+0.222*[#  17]+0.222*[#  18]+0.006*[#   6]
          +0.006*[#  15]
    |psi|^2 = 0.904
==== e(  18) =     1.26582 eV ==== 
     psi = 0.233*[#   8]+0.233*[#   9]+0.233*[#  17]+0.233*[#  18]
    |psi|^2 = 0.936

 k =   0.0416666667  0.1202813061  0.0000000000
==== e(   1) =   -23.53434 eV ==== 
     psi = 0.126*[#   4]+0.126*[#   5]+0.126*[#  13]+0.126*[#  14]+0.111*[#   2]
          +0.111*[#   3]+0.111*[#  11]+0.111*[#  12]+0.025*[#   1]+0.025*[#  10]
          
    |psi|^2 = 1.000
==== e(   2) =   -23.53394 eV ==== 
     psi = 0.136*[#   4]+0.136*[#   5]+0.136*[#  13]+0.136*[#  14]+0.111*[#   2]
          +0.111*[#   3]+0.111*[#  11]+0.111*[#  12]+0.004*[#   1]+0.004*[#  10]
          
    |psi|^2 = 1.000
==== e(   3) =   -23.45920 eV ==== 
     psi = 0.228*[#   1]+0.227*[#  10]+0.113*[#   2]+0.113*[#   3]+0.113*[#  11]
          +0.113*[#  12]+0.023*[#   4]+0.023*[#   5]+0.023*[#  13]+0.023*[#  14]
          
    |psi|^2 = 1.000
==== e(   4) =   -23.44364 eV ==== 
     psi = 0.183*[#   2]+0.183*[#   3]+0.182*[#  11]+0.182*[#  12]+0.066*[#   4]
          +0.066*[#   5]+0.065*[#  13]+0.065*[#  14]+0.004*[#   1]+0.004*[#  10]
          
    |psi|^2 = 1.000
==== e(   5) =   -23.42397 eV ==== 
     psi = 0.260*[#   1]+0.259*[#  10]+0.067*[#   2]+0.067*[#   3]+0.067*[#  11]
          +0.067*[#  12]+0.053*[#   4]+0.053*[#   5]+0.052*[#  13]+0.052*[#  14]
          
    |psi|^2 = 1.000
==== e(   6) =   -23.35782 eV ==== 
     psi = 0.464*[#  10]+0.462*[#   1]+0.013*[#   4]+0.013*[#   5]+0.013*[#  13]
          +0.013*[#  14]+0.005*[#   2]+0.005*[#   3]+0.005*[#  11]+0.005*[#  12]
          
    |psi|^2 = 1.000
==== e(   7) =   -23.23864 eV ==== 
     psi = 0.139*[#  11]+0.139*[#  12]+0.138*[#   2]+0.138*[#   3]+0.110*[#   4]
          +0.110*[#   5]+0.110*[#  13]+0.110*[#  14]+0.002*[#   1]+0.002*[#  10]
          
    |psi|^2 = 1.000
==== e(   8) =   -23.23744 eV ==== 
     psi = 0.137*[#  11]+0.137*[#  12]+0.136*[#   2]+0.136*[#   3]+0.111*[#   4]
          +0.111*[#   5]+0.111*[#  13]+0.111*[#  14]+0.004*[#   1]+0.004*[#  10]
          
    |psi|^2 = 1.000
==== e(   9) =   -23.16150 eV ==== 
     psi = 0.175*[#  13]+0.175*[#  14]+0.175*[#   4]+0.175*[#   5]+0.069*[#   2]
          +0.069*[#   3]+0.069*[#  11]+0.069*[#  12]+0.010*[#   1]+0.010*[#  10]
          
    |psi|^2 = 1.000
==== e(  10) =   -23.15465 eV ==== 
     psi = 0.184*[#  13]+0.184*[#  14]+0.183*[#   4]+0.183*[#   5]+0.066*[#   2]
          +0.066*[#   3]+0.066*[#  11]+0.066*[#  12]
    |psi|^2 = 1.000
==== e(  11) =   -11.26966 eV ==== 
     psi = 0.471*[#   6]+0.471*[#  15]+0.014*[#   7]+0.014*[#  16]+0.007*[#   8]
          +0.007*[#   9]+0.007*[#  17]+0.007*[#  18]
    |psi|^2 = 0.998
==== e(  12) =    -5.46533 eV ==== 
     psi = 0.320*[#   6]+0.320*[#  15]+0.144*[#   7]+0.144*[#  16]+0.017*[#   8]
          +0.017*[#   9]+0.017*[#  17]+0.017*[#  18]
    |psi|^2 = 0.997
==== e(  13) =    -3.28535 eV ==== 
     psi = 0.215*[#   7]+0.215*[#  16]+0.130*[#   8]+0.130*[#   9]+0.130*[#  17]
          +0.130*[#  18]+0.020*[#   6]+0.020*[#  15]
    |psi|^2 = 0.993
==== e(  14) =    -2.62166 eV ==== 
     psi = 0.248*[#   8]+0.248*[#   9]+0.248*[#  17]+0.248*[#  18]
    |psi|^2 = 0.994
==== e(  15) =    -0.92790 eV ==== 
     psi = 0.150*[#   6]+0.151*[#  15]+0.130*[#   7]+0.130*[#  16]+0.102*[#   8]
          +0.102*[#   9]+0.102*[#  17]+0.102*[#  18]
    |psi|^2 = 0.970
==== e(  16) =    -0.07048 eV ==== 
     psi = 0.360*[#   7]+0.360*[#  16]+0.012*[#   6]+0.012*[#  15]+0.002*[#   8]
          +0.002*[#   9]+0.002*[#  17]+0.002*[#  18]
    |psi|^2 = 0.753
==== e(  17) =     0.95738 eV ==== 
     psi = 0.210*[#   8]+0.210*[#   9]+0.210*[#  17]+0.210*[#  18]+0.013*[#   6]
          +0.013*[#  15]
    |psi|^2 = 0.871
==== e(  18) =     1.48737 eV ==== 
     psi = 0.231*[#   8]+0.231*[#   9]+0.232*[#  17]+0.232*[#  18]+0.002*[#   6]
          +0.002*[#  15]+0.001*[#   7]+0.001*[#  16]
    |psi|^2 = 0.936

 k =   0.0416666667  0.1683938285  0.0000000000
==== e(   1) =   -23.53774 eV ==== 
     psi = 0.131*[#   4]+0.131*[#   5]+0.131*[#  13]+0.131*[#  14]+0.105*[#   2]
          +0.105*[#   3]+0.105*[#  11]+0.105*[#  12]+0.026*[#   1]+0.026*[#  10]
          
    |psi|^2 = 1.000
==== e(   2) =   -23.53691 eV ==== 
     psi = 0.133*[#   4]+0.133*[#   5]+0.133*[#  13]+0.133*[#  14]+0.106*[#   2]
          +0.106*[#   3]+0.106*[#  11]+0.106*[#  12]+0.021*[#   1]+0.021*[#  10]
          
    |psi|^2 = 1.000
==== e(   3) =   -23.46414 eV ==== 
     psi = 0.274*[#   1]+0.273*[#  10]+0.101*[#   2]+0.101*[#   3]+0.101*[#  11]
          +0.101*[#  12]+0.012*[#   4]+0.012*[#   5]+0.012*[#  13]+0.012*[#  14]
          
    |psi|^2 = 1.000
==== e(   4) =   -23.43856 eV ==== 
     psi = 0.186*[#   2]+0.186*[#   3]+0.186*[#  11]+0.186*[#  12]+0.060*[#   4]
          +0.060*[#   5]+0.060*[#  13]+0.060*[#  14]+0.006*[#   1]+0.006*[#  10]
          
    |psi|^2 = 1.000
==== e(   5) =   -23.41725 eV ==== 
     psi = 0.209*[#   1]+0.208*[#  10]+0.080*[#   2]+0.080*[#   3]+0.080*[#  11]
          +0.080*[#  12]+0.066*[#   4]+0.066*[#   5]+0.065*[#  13]+0.065*[#  14]
          
    |psi|^2 = 1.000
==== e(   6) =   -23.35068 eV ==== 
     psi = 0.433*[#  10]+0.431*[#   1]+0.024*[#   4]+0.024*[#   5]+0.024*[#  13]
          +0.024*[#  14]+0.010*[#   2]+0.010*[#   3]+0.010*[#  11]+0.010*[#  12]
          
    |psi|^2 = 1.000
==== e(   7) =   -23.24761 eV ==== 
     psi = 0.144*[#  11]+0.144*[#  12]+0.144*[#   2]+0.144*[#   3]+0.103*[#   4]
          +0.103*[#   5]+0.103*[#  13]+0.103*[#  14]+0.005*[#   1]+0.005*[#  10]
          
    |psi|^2 = 1.000
==== e(   8) =   -23.24611 eV ==== 
     psi = 0.141*[#  11]+0.141*[#  12]+0.141*[#   2]+0.141*[#   3]+0.104*[#   4]
          +0.104*[#   5]+0.104*[#  13]+0.104*[#  14]+0.010*[#   1]+0.010*[#  10]
          
    |psi|^2 = 1.000
==== e(   9) =   -23.15847 eV ==== 
     psi = 0.176*[#  13]+0.176*[#  14]+0.176*[#   4]+0.176*[#   5]+0.066*[#   2]
          +0.066*[#   3]+0.066*[#  11]+0.066*[#  12]+0.016*[#   1]+0.016*[#  10]
          
    |psi|^2 = 1.000
==== e(  10) =   -23.14659 eV ==== 
     psi = 0.189*[#  13]+0.189*[#  14]+0.189*[#   4]+0.189*[#   5]+0.060*[#   2]
          +0.060*[#   3]+0.060*[#  11]+0.060*[#  12]
    |psi|^2 = 1.000
==== e(  11) =   -11.18224 eV ==== 
     psi = 0.462*[#   6]+0.462*[#  15]+0.013*[#   7]+0.013*[#  16]+0.012*[#   8]
          +0.012*[#   9]+0.012*[#  17]+0.012*[#  18]
    |psi|^2 = 0.998
==== e(  12) =    -5.66502 eV ==== 
     psi = 0.336*[#   6]+0.336*[#  15]+0.095*[#   7]+0.096*[#  16]+0.033*[#   8]
          +0.033*[#   9]+0.033*[#  17]+0.033*[#  18]
    |psi|^2 = 0.997
==== e(  13) =    -3.51383 eV ==== 
     psi = 0.272*[#   7]+0.272*[#  16]+0.110*[#   8]+0.110*[#   9]+0.110*[#  17]
          +0.110*[#  18]+0.005*[#   6]+0.005*[#  15]
    |psi|^2 = 0.994
==== e(  14) =    -2.77557 eV ==== 
     psi = 0.247*[#   8]+0.247*[#   9]+0.247*[#  17]+0.247*[#  18]
    |psi|^2 = 0.994
==== e(  15) =    -0.63231 eV ==== 
     psi = 0.141*[#   6]+0.141*[#  15]+0.115*[#   7]+0.115*[#  16]+0.113*[#   8]
          +0.113*[#   9]+0.113*[#  17]+0.113*[#  18]
    |psi|^2 = 0.963
==== e(  16) =    -0.09155 eV ==== 
     psi = 0.374*[#   7]+0.374*[#  16]+0.016*[#   6]+0.016*[#  15]+0.005*[#   8]
          +0.005*[#   9]+0.005*[#  17]+0.005*[#  18]
    |psi|^2 = 0.800
==== e(  17) =     0.99542 eV ==== 
     psi = 0.191*[#   8]+0.191*[#   9]+0.191*[#  17]+0.191*[#  18]+0.025*[#   6]
          +0.025*[#  15]+0.006*[#   7]+0.006*[#  16]
    |psi|^2 = 0.830
==== e(  18) =     1.78201 eV ==== 
     psi = 0.229*[#   8]+0.229*[#   9]+0.229*[#  17]+0.229*[#  18]+0.004*[#   6]
          +0.004*[#  15]+0.003*[#   7]+0.003*[#  16]
    |psi|^2 = 0.932

 k =   0.0416666667  0.2165063509  0.0000000000
==== e(   1) =   -23.54129 eV ==== 
     psi = 0.139*[#   4]+0.139*[#   5]+0.139*[#  13]+0.139*[#  14]+0.099*[#   2]
          +0.099*[#   3]+0.099*[#  11]+0.099*[#  12]+0.022*[#   1]+0.022*[#  10]
          
    |psi|^2 = 1.000
==== e(   2) =   -23.53961 eV ==== 
     psi = 0.126*[#   4]+0.126*[#   5]+0.126*[#  13]+0.126*[#  14]+0.101*[#   2]
          +0.101*[#   3]+0.101*[#  11]+0.101*[#  12]+0.045*[#   1]+0.045*[#  10]
          
    |psi|^2 = 1.000
==== e(   3) =   -23.46974 eV ==== 
     psi = 0.302*[#   1]+0.301*[#  10]+0.094*[#   2]+0.094*[#   3]+0.094*[#  11]
          +0.094*[#  12]+0.005*[#   4]+0.005*[#   5]+0.005*[#  13]+0.005*[#  14]
          
    |psi|^2 = 1.000
==== e(   4) =   -23.43277 eV ==== 
     psi = 0.191*[#   2]+0.191*[#   3]+0.190*[#  11]+0.190*[#  12]+0.055*[#   4]
          +0.055*[#   5]+0.055*[#  13]+0.055*[#  14]+0.009*[#   1]+0.009*[#  10]
          
    |psi|^2 = 1.000
==== e(   5) =   -23.41095 eV ==== 
     psi = 0.175*[#   1]+0.174*[#  10]+0.086*[#   2]+0.086*[#   3]+0.086*[#  11]
          +0.086*[#  12]+0.076*[#   4]+0.076*[#   5]+0.076*[#  13]+0.076*[#  14]
          
    |psi|^2 = 1.000
==== e(   6) =   -23.34155 eV ==== 
     psi = 0.393*[#  10]+0.392*[#   1]+0.035*[#  13]+0.035*[#  14]+0.035*[#   4]
          +0.035*[#   5]+0.018*[#   2]+0.018*[#   3]+0.018*[#  11]+0.018*[#  12]
          
    |psi|^2 = 1.000
==== e(   7) =   -23.25691 eV ==== 
     psi = 0.150*[#  11]+0.150*[#  12]+0.149*[#   2]+0.149*[#   3]+0.096*[#   4]
          +0.096*[#   5]+0.096*[#  13]+0.096*[#  14]+0.009*[#   1]+0.009*[#  10]
          
    |psi|^2 = 1.000
==== e(   8) =   -23.25532 eV ==== 
     psi = 0.146*[#  11]+0.146*[#  12]+0.146*[#   2]+0.146*[#   3]+0.093*[#   4]
          +0.093*[#   5]+0.093*[#  13]+0.093*[#  14]+0.021*[#   1]+0.021*[#  10]
          
    |psi|^2 = 1.000
==== e(   9) =   -23.15624 eV ==== 
     psi = 0.177*[#  13]+0.177*[#  14]+0.177*[#   4]+0.177*[#   5]+0.061*[#   2]
          +0.061*[#   3]+0.061*[#  11]+0.061*[#  12]+0.024*[#   1]+0.024*[#  10]
          
    |psi|^2 = 1.000
==== e(  10) =   -23.13833 eV ==== 
     psi = 0.195*[#  13]+0.195*[#  14]+0.195*[#   4]+0.195*[#   5]+0.054*[#   2]
          +0.054*[#   3]+0.054*[#  11]+0.054*[#  12]
    |psi|^2 = 1.000
==== e(  11) =   -11.06666 eV ==== 
     psi = 0.452*[#   6]+0.452*[#  15]+0.017*[#   8]+0.017*[#   9]+0.017*[#  17]
          +0.017*[#  18]+0.012*[#   7]+0.012*[#  16]
    |psi|^2 = 0.998
==== e(  12) =    -5.95206 eV ==== 
     psi = 0.342*[#   6]+0.342*[#  15]+0.054*[#   7]+0.054*[#  16]+0.051*[#   8]
          +0.051*[#   9]+0.051*[#  17]+0.051*[#  18]
    |psi|^2 = 0.996
==== e(  13) =    -3.63552 eV ==== 
     psi = 0.316*[#   7]+0.316*[#  16]+0.090*[#   8]+0.090*[#   9]+0.090*[#  17]
          +0.090*[#  18]
    |psi|^2 = 0.995
==== e(  14) =    -2.94249 eV ==== 
     psi = 0.247*[#   8]+0.247*[#   9]+0.247*[#  17]+0.247*[#  18]+0.001*[#   6]
          
    |psi|^2 = 0.995
==== e(  15) =    -0.51910 eV ==== 
     psi = 0.120*[#   6]+0.120*[#  15]+0.120*[#   8]+0.120*[#   9]+0.120*[#  17]
          +0.120*[#  18]+0.115*[#   7]+0.115*[#  16]
    |psi|^2 = 0.951
==== e(  16) =    -0.11706 eV ==== 
     psi = 0.375*[#   7]+0.375*[#  16]+0.024*[#   6]+0.024*[#  15]+0.012*[#   8]
          +0.012*[#   9]+0.012*[#  17]+0.012*[#  18]
    |psi|^2 = 0.847
==== e(  17) =     1.18501 eV ==== 
     psi = 0.164*[#   8]+0.164*[#   9]+0.164*[#  17]+0.164*[#  18]+0.041*[#   6]
          +0.041*[#  15]+0.016*[#   7]+0.017*[#  16]
    |psi|^2 = 0.772
==== e(  18) =     2.09682 eV ==== 
     psi = 0.194*[#   8]+0.194*[#   9]+0.194*[#  17]+0.194*[#  18]+0.009*[#   7]
          +0.008*[#  16]+0.003*[#   6]+0.003*[#  15]
    |psi|^2 = 0.802

 k =   0.0416666667  0.2646188734  0.0000000000
==== e(   1) =   -23.54462 eV ==== 
     psi = 0.148*[#   4]+0.148*[#   5]+0.148*[#  13]+0.148*[#  14]+0.093*[#   2]
          +0.093*[#   3]+0.093*[#  11]+0.093*[#  12]+0.018*[#   1]+0.018*[#  10]
          
    |psi|^2 = 1.000
==== e(   2) =   -23.54160 eV ==== 
     psi = 0.119*[#   4]+0.119*[#   5]+0.119*[#  13]+0.119*[#  14]+0.096*[#   2]
          +0.096*[#   3]+0.096*[#  11]+0.096*[#  12]+0.070*[#   1]+0.070*[#  10]
          
    |psi|^2 = 1.000
==== e(   3) =   -23.47582 eV ==== 
     psi = 0.318*[#   1]+0.317*[#  10]+0.089*[#   2]+0.089*[#   3]+0.089*[#  11]
          +0.089*[#  12]+0.002*[#   4]+0.002*[#   5]+0.002*[#  13]+0.002*[#  14]
          
    |psi|^2 = 1.000
==== e(   4) =   -23.42678 eV ==== 
     psi = 0.194*[#   2]+0.194*[#   3]+0.194*[#  11]+0.194*[#  12]+0.050*[#   4]
          +0.050*[#   5]+0.050*[#  13]+0.050*[#  14]+0.011*[#   1]+0.011*[#  10]
          
    |psi|^2 = 1.000
==== e(   5) =   -23.40579 eV ==== 
     psi = 0.149*[#   1]+0.149*[#  10]+0.089*[#   2]+0.089*[#   3]+0.089*[#  11]
          +0.089*[#  12]+0.087*[#   4]+0.087*[#   5]+0.086*[#  13]+0.086*[#  14]
          
    |psi|^2 = 1.000
==== e(   6) =   -23.33087 eV ==== 
     psi = 0.348*[#  10]+0.347*[#   1]+0.047*[#  13]+0.047*[#  14]+0.047*[#   4]
          +0.047*[#   5]+0.029*[#   2]+0.029*[#   3]+0.029*[#  11]+0.029*[#  12]
          
    |psi|^2 = 1.000
==== e(   7) =   -23.26592 eV ==== 
     psi = 0.156*[#  11]+0.156*[#  12]+0.155*[#   2]+0.155*[#   3]+0.089*[#   4]
          +0.089*[#   5]+0.089*[#  13]+0.089*[#  14]+0.010*[#   1]+0.010*[#  10]
          
    |psi|^2 = 1.000
==== e(   8) =   -23.26417 eV ==== 
     psi = 0.152*[#  11]+0.152*[#  12]+0.151*[#   2]+0.151*[#   3]+0.076*[#   4]
          +0.076*[#   5]+0.077*[#  13]+0.077*[#  14]+0.044*[#   1]+0.044*[#  10]
          
    |psi|^2 = 1.000
==== e(   9) =   -23.15522 eV ==== 
     psi = 0.179*[#  13]+0.179*[#  14]+0.179*[#   4]+0.179*[#   5]+0.055*[#   2]
          +0.055*[#   3]+0.055*[#  11]+0.055*[#  12]+0.031*[#   1]+0.031*[#  10]
          
    |psi|^2 = 1.000
==== e(  10) =   -23.13040 eV ==== 
     psi = 0.201*[#  13]+0.201*[#  14]+0.201*[#   4]+0.201*[#   5]+0.048*[#   2]
          +0.048*[#   3]+0.048*[#  11]+0.048*[#  12]
    |psi|^2 = 1.000
==== e(  11) =   -10.92402 eV ==== 
     psi = 0.441*[#   6]+0.441*[#  15]+0.024*[#   8]+0.024*[#   9]+0.024*[#  17]
          +0.024*[#  18]+0.011*[#   7]+0.011*[#  16]
    |psi|^2 = 0.998
==== e(  12) =    -6.30524 eV ==== 
     psi = 0.339*[#   6]+0.339*[#  15]+0.065*[#   8]+0.065*[#   9]+0.065*[#  17]
          +0.065*[#  18]+0.028*[#   7]+0.028*[#  16]
    |psi|^2 = 0.996
==== e(  13) =    -3.66160 eV ==== 
     psi = 0.339*[#   7]+0.339*[#  16]+0.076*[#   8]+0.076*[#   9]+0.076*[#  17]
          +0.076*[#  18]+0.006*[#   6]+0.006*[#  15]
    |psi|^2 = 0.995
==== e(  14) =    -3.10691 eV ==== 
     psi = 0.246*[#   8]+0.246*[#   9]+0.246*[#  17]+0.246*[#  18]+0.003*[#   7]
          +0.003*[#  16]+0.001*[#   6]+0.001*[#  15]
    |psi|^2 = 0.995
==== e(  15) =    -0.58306 eV ==== 
     psi = 0.148*[#   7]+0.148*[#  16]+0.112*[#   8]+0.112*[#   9]+0.112*[#  17]
          +0.112*[#  18]+0.099*[#   6]+0.099*[#  15]
    |psi|^2 = 0.946
==== e(  16) =    -0.13883 eV ==== 
     psi = 0.348*[#   7]+0.348*[#  16]+0.037*[#   6]+0.037*[#  15]+0.028*[#   8]
          +0.028*[#   9]+0.028*[#  17]+0.028*[#  18]
    |psi|^2 = 0.881
==== e(  17) =     1.46279 eV ==== 
     psi = 0.128*[#   8]+0.128*[#   9]+0.128*[#  17]+0.128*[#  18]+0.046*[#   6]
          +0.046*[#  15]+0.022*[#   7]+0.022*[#  16]
    |psi|^2 = 0.649
==== e(  18) =     2.29215 eV ==== 
     psi = 0.083*[#  17]+0.083*[#  18]+0.082*[#   8]+0.082*[#   9]+0.017*[#   7]
          +0.017*[#  16]
    |psi|^2 = 0.366

 k =   0.0416666667  0.3127313958  0.0000000000
==== e(   1) =   -23.54752 eV ==== 
     psi = 0.157*[#   4]+0.157*[#   5]+0.157*[#  13]+0.157*[#  14]+0.086*[#   2]
          +0.086*[#   3]+0.086*[#  11]+0.086*[#  12]+0.013*[#   1]+0.013*[#  10]
          
    |psi|^2 = 1.000
==== e(   2) =   -23.54257 eV ==== 
     psi = 0.111*[#   4]+0.111*[#   5]+0.111*[#  13]+0.111*[#  14]+0.096*[#   1]
          +0.096*[#  10]+0.091*[#   2]+0.091*[#   3]+0.091*[#  11]+0.091*[#  12]
          
    |psi|^2 = 1.000
==== e(   3) =   -23.48225 eV ==== 
     psi = 0.325*[#   1]+0.325*[#  10]+0.086*[#   2]+0.086*[#   3]+0.086*[#  11]
          +0.086*[#  12]+0.001*[#   4]+0.001*[#   5]+0.001*[#  13]+0.001*[#  14]
          
    |psi|^2 = 1.000
==== e(   4) =   -23.42104 eV ==== 
     psi = 0.196*[#   2]+0.196*[#   3]+0.196*[#  11]+0.196*[#  12]+0.047*[#   4]
          +0.047*[#   5]+0.047*[#  13]+0.047*[#  14]+0.014*[#   1]+0.014*[#  10]
          
    |psi|^2 = 1.000
==== e(   5) =   -23.40212 eV ==== 
     psi = 0.126*[#   1]+0.125*[#  10]+0.097*[#   4]+0.097*[#   5]+0.097*[#  13]
          +0.097*[#  14]+0.090*[#   2]+0.090*[#   3]+0.090*[#  11]+0.090*[#  12]
          
    |psi|^2 = 1.000
==== e(   6) =   -23.31941 eV ==== 
     psi = 0.299*[#  10]+0.298*[#   1]+0.058*[#  13]+0.058*[#  14]+0.058*[#   4]
          +0.058*[#   5]+0.042*[#   2]+0.042*[#   3]+0.042*[#  11]+0.042*[#  12]
          
    |psi|^2 = 1.000
==== e(   7) =   -23.27428 eV ==== 
     psi = 0.162*[#  11]+0.162*[#  12]+0.161*[#   2]+0.161*[#   3]+0.085*[#   4]
          +0.085*[#   5]+0.085*[#  13]+0.085*[#  14]+0.007*[#   1]+0.007*[#  10]
          
    |psi|^2 = 1.000
==== e(   8) =   -23.27173 eV ==== 
     psi = 0.156*[#  11]+0.156*[#  12]+0.156*[#   2]+0.156*[#   3]+0.081*[#   1]
          +0.081*[#  10]+0.054*[#   4]+0.054*[#   5]+0.054*[#  13]+0.054*[#  14]
          
    |psi|^2 = 1.000
==== e(   9) =   -23.15558 eV ==== 
     psi = 0.182*[#  13]+0.182*[#  14]+0.182*[#   4]+0.182*[#   5]+0.048*[#   2]
          +0.048*[#   3]+0.048*[#  11]+0.048*[#  12]+0.039*[#   1]+0.039*[#  10]
          
    |psi|^2 = 1.000
==== e(  10) =   -23.12315 eV ==== 
     psi = 0.207*[#  13]+0.207*[#  14]+0.207*[#   4]+0.207*[#   5]+0.042*[#   2]
          +0.042*[#   3]+0.043*[#  11]+0.043*[#  12]
    |psi|^2 = 1.000
==== e(  11) =   -10.75615 eV ==== 
     psi = 0.430*[#   6]+0.430*[#  15]+0.030*[#   8]+0.030*[#   9]+0.030*[#  17]
          +0.030*[#  18]+0.009*[#   7]+0.009*[#  16]
    |psi|^2 = 0.997
==== e(  12) =    -6.69382 eV ==== 
     psi = 0.334*[#   6]+0.334*[#  15]+0.075*[#   8]+0.075*[#   9]+0.075*[#  17]
          +0.075*[#  18]+0.013*[#   7]+0.013*[#  16]
    |psi|^2 = 0.997
==== e(  13) =    -3.61972 eV ==== 
     psi = 0.341*[#   7]+0.341*[#  16]+0.069*[#   8]+0.069*[#   9]+0.069*[#  17]
          +0.069*[#  18]+0.017*[#   6]+0.017*[#  15]
    |psi|^2 = 0.994
==== e(  14) =    -3.25590 eV ==== 
     psi = 0.242*[#   8]+0.242*[#   9]+0.242*[#  17]+0.242*[#  18]+0.012*[#   7]
          +0.012*[#  16]
    |psi|^2 = 0.996
==== e(  15) =    -0.73305 eV ==== 
     psi = 0.187*[#   7]+0.187*[#  16]+0.100*[#   8]+0.100*[#   9]+0.100*[#  17]
          +0.100*[#  18]+0.087*[#   6]+0.087*[#  15]
    |psi|^2 = 0.949
==== e(  16) =    -0.18498 eV ==== 
     psi = 0.317*[#   7]+0.317*[#  16]+0.047*[#   6]+0.047*[#  15]+0.042*[#   8]
          +0.042*[#   9]+0.042*[#  17]+0.042*[#  18]
    |psi|^2 = 0.899
==== e(  17) =     1.69963 eV ==== 
     psi = 0.083*[#   8]+0.083*[#   9]+0.083*[#  17]+0.083*[#  18]+0.035*[#   6]
          +0.035*[#  15]+0.019*[#   7]+0.019*[#  16]
    |psi|^2 = 0.443
==== e(  18) =     2.49683 eV ==== 
     psi = 0.082*[#   8]+0.082*[#   9]+0.082*[#  17]+0.082*[#  18]+0.005*[#   7]
          +0.005*[#  16]+0.004*[#   6]+0.004*[#  15]
    |psi|^2 = 0.348

 k =   0.0416666667  0.3608439182  0.0000000000
==== e(   1) =   -23.54988 eV ==== 
     psi = 0.165*[#   4]+0.165*[#   5]+0.164*[#  13]+0.164*[#  14]+0.080*[#   2]
          +0.080*[#   3]+0.080*[#  11]+0.080*[#  12]+0.009*[#   1]+0.009*[#  10]
          
    |psi|^2 = 1.000
==== e(   2) =   -23.54236 eV ==== 
     psi = 0.121*[#   1]+0.121*[#  10]+0.103*[#   4]+0.103*[#   5]+0.103*[#  13]
          +0.103*[#  14]+0.086*[#   2]+0.086*[#   3]+0.086*[#  11]+0.086*[#  12]
          
    |psi|^2 = 1.000
==== e(   3) =   -23.48887 eV ==== 
     psi = 0.326*[#   1]+0.326*[#  10]+0.085*[#   2]+0.085*[#   3]+0.084*[#  11]
          +0.084*[#  12]+0.002*[#   4]+0.002*[#   5]+0.002*[#  13]+0.002*[#  14]
          
    |psi|^2 = 1.000
==== e(   4) =   -23.41586 eV ==== 
     psi = 0.196*[#   2]+0.196*[#   3]+0.196*[#  11]+0.196*[#  12]+0.046*[#   4]
          +0.046*[#   5]+0.046*[#  13]+0.046*[#  14]+0.016*[#   1]+0.016*[#  10]
          
    |psi|^2 = 1.000
==== e(   5) =   -23.39995 eV ==== 
     psi = 0.107*[#   4]+0.107*[#   5]+0.107*[#  13]+0.107*[#  14]+0.101*[#   1]
          +0.101*[#  10]+0.092*[#   2]+0.092*[#   3]+0.092*[#  11]+0.092*[#  12]
          
    |psi|^2 = 1.000
==== e(   6) =   -23.30846 eV ==== 
     psi = 0.239*[#  10]+0.238*[#   1]+0.071*[#  13]+0.071*[#  14]+0.070*[#   4]
          +0.070*[#   5]+0.060*[#   2]+0.060*[#   3]+0.060*[#  11]+0.060*[#  12]
          
    |psi|^2 = 1.000
==== e(   7) =   -23.28173 eV ==== 
     psi = 0.167*[#  11]+0.167*[#  12]+0.167*[#   2]+0.167*[#   3]+0.080*[#   4]
          +0.080*[#   5]+0.080*[#  13]+0.080*[#  14]+0.007*[#   1]+0.007*[#  10]
          
    |psi|^2 = 1.000
==== e(   8) =   -23.27697 eV ==== 
     psi = 0.156*[#  11]+0.156*[#  12]+0.155*[#   2]+0.155*[#   3]+0.134*[#   1]
          +0.134*[#  10]+0.027*[#   4]+0.027*[#   5]+0.027*[#  13]+0.027*[#  14]
          
    |psi|^2 = 1.000
==== e(   9) =   -23.15724 eV ==== 
     psi = 0.186*[#  13]+0.186*[#  14]+0.185*[#   4]+0.185*[#   5]+0.047*[#   1]
          +0.047*[#  10]+0.041*[#   2]+0.041*[#   3]+0.041*[#  11]+0.041*[#  12]
          
    |psi|^2 = 1.000
==== e(  10) =   -23.11682 eV ==== 
     psi = 0.212*[#  13]+0.212*[#  14]+0.212*[#   4]+0.212*[#   5]+0.037*[#   2]
          +0.037*[#   3]+0.037*[#  11]+0.037*[#  12]
    |psi|^2 = 1.000
==== e(  11) =   -10.56622 eV ==== 
     psi = 0.420*[#   6]+0.420*[#  15]+0.035*[#   8]+0.035*[#   9]+0.035*[#  17]
          +0.035*[#  18]+0.008*[#   7]+0.008*[#  16]
    |psi|^2 = 0.997
==== e(  12) =    -7.09111 eV ==== 
     psi = 0.329*[#   6]+0.329*[#  15]+0.081*[#   8]+0.081*[#   9]+0.081*[#  17]
          +0.081*[#  18]+0.006*[#   7]+0.006*[#  16]
    |psi|^2 = 0.997
==== e(  13) =    -3.54999 eV ==== 
     psi = 0.276*[#   7]+0.276*[#  16]+0.097*[#   8]+0.097*[#   9]+0.097*[#  17]
          +0.097*[#  18]+0.027*[#   6]+0.027*[#  15]
    |psi|^2 = 0.994
==== e(  14) =    -3.36594 eV ==== 
     psi = 0.209*[#   8]+0.209*[#   9]+0.209*[#  17]+0.209*[#  18]+0.077*[#   7]
          +0.077*[#  16]+0.002*[#   6]+0.002*[#  15]
    |psi|^2 = 0.996
==== e(  15) =    -0.91417 eV ==== 
     psi = 0.229*[#   7]+0.229*[#  16]+0.085*[#   8]+0.085*[#   9]+0.085*[#  17]
          +0.085*[#  18]+0.077*[#   6]+0.077*[#  15]
    |psi|^2 = 0.954
==== e(  16) =    -0.26111 eV ==== 
     psi = 0.283*[#   7]+0.283*[#  16]+0.057*[#   6]+0.057*[#  15]+0.055*[#   8]
          +0.055*[#   9]+0.055*[#  17]+0.055*[#  18]
    |psi|^2 = 0.903
==== e(  17) =     1.86513 eV ==== 
     psi = 0.054*[#   8]+0.054*[#   9]+0.054*[#  17]+0.054*[#  18]+0.023*[#   6]
          +0.023*[#  15]+0.017*[#   7]+0.017*[#  16]
    |psi|^2 = 0.295
==== e(  18) =     2.72061 eV ==== 
     psi = 0.062*[#   8]+0.062*[#   9]+0.062*[#  17]+0.062*[#  18]+0.002*[#   6]
          +0.002*[#  15]
    |psi|^2 = 0.252

 k =   0.0416666667  0.4089564407  0.0000000000
==== e(   1) =   -23.55171 eV ==== 
     psi = 0.171*[#   4]+0.171*[#   5]+0.171*[#  13]+0.171*[#  14]+0.075*[#   2]
          +0.075*[#   3]+0.075*[#  11]+0.075*[#  12]+0.006*[#   1]+0.006*[#  10]
          
    |psi|^2 = 1.000
==== e(   2) =   -23.54098 eV ==== 
     psi = 0.144*[#   1]+0.144*[#  10]+0.097*[#   4]+0.097*[#   5]+0.096*[#  13]
          +0.096*[#  14]+0.081*[#   2]+0.081*[#   3]+0.081*[#  11]+0.081*[#  12]
          
    |psi|^2 = 1.000
==== e(   3) =   -23.49551 eV ==== 
     psi = 0.321*[#   1]+0.321*[#  10]+0.084*[#   2]+0.084*[#   3]+0.084*[#  11]
          +0.084*[#  12]+0.005*[#   4]+0.005*[#   5]+0.005*[#  13]+0.005*[#  14]
          
    |psi|^2 = 1.000
==== e(   4) =   -23.41143 eV ==== 
     psi = 0.194*[#   2]+0.194*[#   3]+0.193*[#  11]+0.193*[#  12]+0.048*[#   4]
          +0.048*[#   5]+0.048*[#  13]+0.048*[#  14]+0.017*[#   1]+0.017*[#  10]
          
    |psi|^2 = 1.000
==== e(   5) =   -23.39909 eV ==== 
     psi = 0.115*[#   4]+0.115*[#   5]+0.114*[#  13]+0.114*[#  14]+0.097*[#   2]
          +0.097*[#   3]+0.097*[#  11]+0.097*[#  12]+0.077*[#   1]+0.077*[#  10]
          
    |psi|^2 = 1.000
==== e(   6) =   -23.30048 eV ==== 
     psi = 0.161*[#  10]+0.160*[#   1]+0.091*[#   2]+0.091*[#   3]+0.091*[#  11]
          +0.091*[#  12]+0.079*[#  13]+0.079*[#  14]+0.078*[#   4]+0.078*[#   5]
          
    |psi|^2 = 1.000
==== e(   7) =   -23.28794 eV ==== 
     psi = 0.171*[#  11]+0.171*[#  12]+0.171*[#   2]+0.171*[#   3]+0.074*[#   4]
          +0.074*[#   5]+0.074*[#  13]+0.074*[#  14]+0.011*[#   1]+0.011*[#  10]
          
    |psi|^2 = 1.000
==== e(   8) =   -23.27815 eV ==== 
     psi = 0.208*[#   1]+0.208*[#  10]+0.142*[#  11]+0.142*[#  12]+0.141*[#   2]
          +0.141*[#   3]+0.004*[#   4]+0.004*[#   5]+0.004*[#  13]+0.004*[#  14]
          
    |psi|^2 = 1.000
==== e(   9) =   -23.15996 eV ==== 
     psi = 0.191*[#  13]+0.191*[#  14]+0.190*[#   4]+0.190*[#   5]+0.054*[#   1]
          +0.054*[#  10]+0.032*[#   2]+0.032*[#   3]+0.032*[#  11]+0.032*[#  12]
          
    |psi|^2 = 1.000
==== e(  10) =   -23.11157 eV ==== 
     psi = 0.217*[#  13]+0.217*[#  14]+0.217*[#   4]+0.217*[#   5]+0.033*[#   2]
          +0.033*[#   3]+0.033*[#  11]+0.033*[#  12]
    |psi|^2 = 1.000
==== e(  11) =   -10.36003 eV ==== 
     psi = 0.412*[#   6]+0.412*[#  15]+0.040*[#   8]+0.040*[#   9]+0.040*[#  17]
          +0.040*[#  18]+0.007*[#   7]+0.007*[#  16]
    |psi|^2 = 0.997
==== e(  12) =    -7.47580 eV ==== 
     psi = 0.325*[#   6]+0.325*[#  15]+0.085*[#   8]+0.085*[#   9]+0.085*[#  17]
          +0.085*[#  18]+0.002*[#   7]+0.002*[#  16]
    |psi|^2 = 0.997
==== e(  13) =    -3.56056 eV ==== 
     psi = 0.209*[#   8]+0.209*[#   9]+0.209*[#  17]+0.209*[#  18]+0.064*[#   7]
          +0.064*[#  16]+0.016*[#   6]+0.016*[#  15]
    |psi|^2 = 0.995
==== e(  14) =    -3.34377 eV ==== 
     psi = 0.282*[#   7]+0.282*[#  16]+0.095*[#   8]+0.095*[#   9]+0.095*[#  17]
          +0.095*[#  18]+0.025*[#   6]+0.025*[#  15]
    |psi|^2 = 0.993
==== e(  15) =    -1.10406 eV ==== 
     psi = 0.273*[#   7]+0.273*[#  16]+0.069*[#   8]+0.069*[#   9]+0.069*[#  17]
          +0.069*[#  18]+0.066*[#   6]+0.066*[#  15]
    |psi|^2 = 0.958
==== e(  16) =    -0.35174 eV ==== 
     psi = 0.246*[#   7]+0.246*[#  16]+0.069*[#   6]+0.069*[#  15]+0.066*[#   8]
          +0.066*[#   9]+0.066*[#  17]+0.066*[#  18]
    |psi|^2 = 0.898
==== e(  17) =     2.01444 eV ==== 
     psi = 0.042*[#   8]+0.042*[#   9]+0.042*[#  17]+0.042*[#  18]+0.020*[#   7]
          +0.020*[#  16]+0.016*[#   6]+0.016*[#  15]
    |psi|^2 = 0.239
==== e(  18) =     2.90531 eV ==== 
     psi = 0.076*[#   8]+0.076*[#   9]+0.076*[#  17]+0.076*[#  18]+0.003*[#   7]
          +0.003*[#  16]
    |psi|^2 = 0.313

 k =   0.0416666667  0.4570689631  0.0000000000
==== e(   1) =   -23.55301 eV ==== 
     psi = 0.176*[#   4]+0.176*[#   5]+0.176*[#  13]+0.176*[#  14]+0.071*[#   2]
          +0.071*[#   3]+0.071*[#  11]+0.071*[#  12]+0.004*[#   1]+0.004*[#  10]
          
    |psi|^2 = 1.000
==== e(   2) =   -23.53863 eV ==== 
     psi = 0.166*[#   1]+0.165*[#  10]+0.091*[#   4]+0.091*[#   5]+0.091*[#  13]
          +0.091*[#  14]+0.076*[#   2]+0.076*[#   3]+0.076*[#  11]+0.076*[#  12]
          
    |psi|^2 = 1.000
==== e(   3) =   -23.50186 eV ==== 
     psi = 0.313*[#   1]+0.313*[#  10]+0.086*[#   2]+0.086*[#   3]+0.086*[#  11]
          +0.086*[#  12]+0.008*[#   4]+0.008*[#   5]+0.008*[#  13]+0.008*[#  14]
          
    |psi|^2 = 1.000
==== e(   4) =   -23.40784 eV ==== 
     psi = 0.188*[#   2]+0.188*[#   3]+0.187*[#  11]+0.187*[#  12]+0.053*[#   4]
          +0.053*[#   5]+0.053*[#  13]+0.053*[#  14]+0.018*[#   1]+0.018*[#  10]
          
    |psi|^2 = 1.000
==== e(   5) =   -23.39922 eV ==== 
     psi = 0.117*[#   4]+0.117*[#   5]+0.117*[#  13]+0.117*[#  14]+0.105*[#   2]
          +0.105*[#   3]+0.105*[#  11]+0.105*[#  12]+0.055*[#   1]+0.055*[#  10]
          
    |psi|^2 = 1.000
==== e(   6) =   -23.29773 eV ==== 
     psi = 0.129*[#  11]+0.129*[#  12]+0.129*[#   2]+0.129*[#   3]+0.107*[#  10]
          +0.107*[#   1]+0.067*[#  13]+0.067*[#  14]+0.067*[#   4]+0.067*[#   5]
          
    |psi|^2 = 1.000
==== e(   7) =   -23.29270 eV ==== 
     psi = 0.172*[#  11]+0.172*[#  12]+0.172*[#   2]+0.172*[#   3]+0.067*[#   4]
          +0.067*[#   5]+0.067*[#  13]+0.067*[#  14]+0.022*[#  10]+0.021*[#   1]
          
    |psi|^2 = 1.000
==== e(   8) =   -23.27398 eV ==== 
     psi = 0.255*[#   1]+0.255*[#  10]+0.120*[#  11]+0.120*[#  12]+0.120*[#   2]
          +0.120*[#   3]+0.003*[#   4]+0.003*[#   5]+0.003*[#  13]+0.003*[#  14]
          
    |psi|^2 = 1.000
==== e(   9) =   -23.16322 eV ==== 
     psi = 0.197*[#  13]+0.197*[#  14]+0.196*[#   4]+0.196*[#   5]+0.060*[#   1]
          +0.060*[#  10]+0.023*[#   2]+0.023*[#   3]+0.023*[#  11]+0.023*[#  12]
          
    |psi|^2 = 1.000
==== e(  10) =   -23.10752 eV ==== 
[...]
     psi = 0.233*[#  13]+0.233*[#  14]+0.233*[#   4]+0.233*[#   5]+0.017*[#   2]
          +0.017*[#   3]+0.017*[#  11]+0.017*[#  12]
    |psi|^2 = 1.000
==== e(  11) =    -9.68082 eV ==== 
     psi = 0.387*[#   6]+0.387*[#  15]+0.054*[#   8]+0.054*[#   9]+0.054*[#  17]
          +0.054*[#  18]+0.003*[#   7]+0.003*[#  16]
    |psi|^2 = 0.997
==== e(  12) =    -8.34550 eV ==== 
     psi = 0.350*[#   6]+0.350*[#  15]+0.074*[#   8]+0.074*[#   9]+0.074*[#  17]
          +0.074*[#  18]
    |psi|^2 = 0.997
==== e(  13) =    -4.63591 eV ==== 
     psi = 0.246*[#   8]+0.246*[#   9]+0.246*[#  17]+0.246*[#  18]+0.005*[#   6]
          +0.005*[#  15]
    |psi|^2 = 0.997
==== e(  14) =    -2.69876 eV ==== 
     psi = 0.385*[#   7]+0.385*[#  16]+0.039*[#   8]+0.039*[#   9]+0.039*[#  17]
          +0.039*[#  18]+0.032*[#   6]+0.032*[#  15]
    |psi|^2 = 0.989
==== e(  15) =    -1.55816 eV ==== 
     psi = 0.392*[#   7]+0.392*[#  16]+0.034*[#   6]+0.034*[#  15]+0.032*[#   8]
          +0.032*[#   9]+0.032*[#  17]+0.032*[#  18]
    |psi|^2 = 0.981
==== e(  16) =     1.60800 eV ==== 
     psi = 0.142*[#   8]+0.142*[#   9]+0.142*[#  17]+0.142*[#  18]+0.074*[#   6]
          +0.074*[#  15]+0.061*[#   7]+0.061*[#  16]
    |psi|^2 = 0.838
==== e(  17) =     1.93761 eV ==== 
     psi = 0.120*[#   8]+0.120*[#   9]+0.120*[#  17]+0.120*[#  18]+0.033*[#   7]
          +0.033*[#  16]+0.023*[#   6]+0.023*[#  15]
    |psi|^2 = 0.593
==== e(  18) =     2.39160 eV ==== 
     psi = 0.098*[#   8]+0.098*[#   9]+0.098*[#  17]+0.098*[#  18]+0.059*[#   7]
          +0.059*[#  16]+0.045*[#   6]+0.045*[#  15]
    |psi|^2 = 0.602

 k =   0.2500000000  0.5292377468  0.0000000000
==== e(   1) =   -23.57467 eV ==== 
     psi = 0.204*[#   4]+0.204*[#   5]+0.204*[#  13]+0.204*[#  14]+0.046*[#   2]
          +0.046*[#   3]+0.046*[#  11]+0.046*[#  12]
    |psi|^2 = 1.000
==== e(   2) =   -23.52527 eV ==== 
     psi = 0.245*[#   1]+0.244*[#  10]+0.087*[#  11]+0.087*[#  12]+0.087*[#   2]
          +0.087*[#   3]+0.040*[#   4]+0.040*[#   5]+0.040*[#  13]+0.040*[#  14]
          
    |psi|^2 = 1.000
==== e(   3) =   -23.51454 eV ==== 
     psi = 0.289*[#  10]+0.289*[#   1]+0.090*[#   2]+0.090*[#   3]+0.090*[#  11]
          +0.090*[#  12]+0.015*[#   4]+0.015*[#   5]+0.015*[#  13]+0.015*[#  14]
          
    |psi|^2 = 1.000
==== e(   4) =   -23.39446 eV ==== 
     psi = 0.227*[#   2]+0.227*[#   3]+0.226*[#  11]+0.226*[#  12]+0.023*[#   4]
          +0.023*[#   5]+0.023*[#  13]+0.023*[#  14]
    |psi|^2 = 1.000
==== e(   5) =   -23.34776 eV ==== 
     psi = 0.127*[#   4]+0.127*[#   5]+0.126*[#  13]+0.126*[#  14]+0.121*[#   2]
          +0.121*[#   3]+0.120*[#  11]+0.120*[#  12]+0.005*[#   1]+0.005*[#  10]
          
    |psi|^2 = 1.000
==== e(   6) =   -23.32001 eV ==== 
     psi = 0.123*[#   4]+0.123*[#   5]+0.123*[#  13]+0.123*[#  14]+0.120*[#  11]
          +0.120*[#  12]+0.120*[#   2]+0.120*[#   3]+0.014*[#   1]+0.014*[#  10]
          
    |psi|^2 = 1.000
==== e(   7) =   -23.30785 eV ==== 
     psi = 0.155*[#  11]+0.155*[#  12]+0.154*[#   2]+0.154*[#   3]+0.076*[#  13]
          +0.076*[#  14]+0.075*[#   4]+0.075*[#   5]+0.039*[#   1]+0.039*[#  10]
          
    |psi|^2 = 1.000
==== e(   8) =   -23.25675 eV ==== 
     psi = 0.252*[#  10]+0.252*[#   1]+0.094*[#   2]+0.094*[#   3]+0.094*[#  11]
          +0.094*[#  12]+0.029*[#   4]+0.029*[#   5]+0.029*[#  13]+0.029*[#  14]
          
    |psi|^2 = 1.000
==== e(   9) =   -23.21986 eV ==== 
     psi = 0.154*[#   1]+0.154*[#  10]+0.127*[#  13]+0.127*[#  14]+0.127*[#   4]
          +0.127*[#   5]+0.046*[#   2]+0.046*[#   3]+0.046*[#  11]+0.046*[#  12]
          
    |psi|^2 = 1.000
==== e(  10) =   -23.07225 eV ==== 
     psi = 0.235*[#  13]+0.235*[#  14]+0.235*[#   4]+0.235*[#   5]+0.015*[#   2]
          +0.015*[#   3]+0.015*[#  11]+0.015*[#  12]
    |psi|^2 = 1.000
==== e(  11) =    -9.47971 eV ==== 
     psi = 0.383*[#   6]+0.383*[#  15]+0.056*[#   8]+0.056*[#   9]+0.056*[#  17]
          +0.056*[#  18]+0.002*[#   7]+0.002*[#  16]
    |psi|^2 = 0.997
==== e(  12) =    -8.58117 eV ==== 
     psi = 0.353*[#   6]+0.353*[#  15]+0.072*[#   8]+0.072*[#   9]+0.072*[#  17]
          +0.072*[#  18]
    |psi|^2 = 0.997
==== e(  13) =    -4.72209 eV ==== 
     psi = 0.247*[#   8]+0.247*[#   9]+0.247*[#  17]+0.247*[#  18]+0.004*[#   6]
          +0.004*[#  15]
    |psi|^2 = 0.997
==== e(  14) =    -2.52477 eV ==== 
     psi = 0.385*[#   7]+0.385*[#  16]+0.038*[#   8]+0.038*[#   9]+0.038*[#  17]
          +0.038*[#  18]+0.034*[#   6]+0.034*[#  15]
    |psi|^2 = 0.989
==== e(  15) =    -1.74595 eV ==== 
     psi = 0.393*[#   7]+0.393*[#  16]+0.034*[#   6]+0.034*[#  15]+0.032*[#   8]
          +0.032*[#   9]+0.032*[#  17]+0.032*[#  18]
    |psi|^2 = 0.981
==== e(  16) =     1.67403 eV ==== 
     psi = 0.134*[#   8]+0.134*[#   9]+0.134*[#  17]+0.134*[#  18]+0.066*[#   6]
          +0.066*[#  15]+0.061*[#   7]+0.061*[#  16]
    |psi|^2 = 0.792
==== e(  17) =     1.82427 eV ==== 
     psi = 0.126*[#   8]+0.126*[#   9]+0.126*[#  17]+0.126*[#  18]+0.032*[#   7]
          +0.032*[#  16]+0.025*[#   6]+0.025*[#  15]
    |psi|^2 = 0.620
==== e(  18) =     2.79479 eV ==== 
     psi = 0.092*[#   8]+0.092*[#   9]+0.092*[#  17]+0.092*[#  18]+0.056*[#   7]
          +0.056*[#  16]+0.044*[#   6]+0.044*[#  15]
    |psi|^2 = 0.568

 k =   0.2500000000  0.5773502692  0.0000000000
==== e(   1) =   -23.57531 eV ==== 
     psi = 0.205*[#   4]+0.205*[#   5]+0.205*[#  13]+0.205*[#  14]+0.045*[#   2]
          +0.045*[#   3]+0.045*[#  11]+0.045*[#  12]
    |psi|^2 = 1.000
==== e(   2) =   -23.52389 eV ==== 
     psi = 0.252*[#   1]+0.251*[#  10]+0.086*[#  11]+0.086*[#  12]+0.086*[#   2]
          +0.086*[#   3]+0.038*[#   4]+0.038*[#   5]+0.038*[#  13]+0.038*[#  14]
          
    |psi|^2 = 1.000
==== e(   3) =   -23.51620 eV ==== 
     psi = 0.285*[#  10]+0.284*[#   1]+0.091*[#   2]+0.091*[#   3]+0.091*[#  11]
          +0.091*[#  12]+0.016*[#   4]+0.016*[#   5]+0.016*[#  13]+0.016*[#  14]
          
    |psi|^2 = 1.000
==== e(   4) =   -23.39284 eV ==== 
     psi = 0.232*[#   2]+0.232*[#   3]+0.231*[#  11]+0.231*[#  12]+0.019*[#   4]
          +0.019*[#   5]+0.018*[#  13]+0.018*[#  14]
    |psi|^2 = 1.000
==== e(   5) =   -23.34841 eV ==== 
     psi = 0.139*[#   4]+0.139*[#   5]+0.138*[#  13]+0.138*[#  14]+0.110*[#   2]
          +0.110*[#   3]+0.110*[#  11]+0.110*[#  12]+0.001*[#   1]+0.001*[#  10]
          
    |psi|^2 = 1.000
==== e(   6) =   -23.31408 eV ==== 
     psi = 0.169*[#   2]+0.169*[#   3]+0.162*[#  11]+0.162*[#  12]+0.094*[#   4]
          +0.094*[#   5]+0.073*[#  13]+0.073*[#  14]+0.002*[#  10]
    |psi|^2 = 1.000
==== e(   7) =   -23.31367 eV ==== 
     psi = 0.122*[#  11]+0.122*[#  12]+0.118*[#  13]+0.118*[#  14]+0.113*[#   2]
          +0.113*[#   3]+0.096*[#   4]+0.096*[#   5]+0.052*[#   1]+0.050*[#  10]
          
    |psi|^2 = 1.000
==== e(   8) =   -23.25398 eV ==== 
     psi = 0.247*[#  10]+0.246*[#   1]+0.092*[#   2]+0.092*[#   3]+0.092*[#  11]
          +0.092*[#  12]+0.034*[#   4]+0.034*[#   5]+0.034*[#  13]+0.034*[#  14]
          
    |psi|^2 = 1.000
==== e(   9) =   -23.22374 eV ==== 
     psi = 0.164*[#   1]+0.164*[#  10]+0.123*[#  13]+0.123*[#  14]+0.123*[#   4]
          +0.123*[#   5]+0.045*[#   2]+0.045*[#   3]+0.045*[#  11]+0.045*[#  12]
          
    |psi|^2 = 1.000
==== e(  10) =   -23.07115 eV ==== 
     psi = 0.235*[#  13]+0.235*[#  14]+0.235*[#   4]+0.235*[#   5]+0.015*[#   2]
          +0.015*[#   3]+0.015*[#  11]+0.015*[#  12]
    |psi|^2 = 1.000
==== e(  11) =    -9.38135 eV ==== 
     psi = 0.382*[#   6]+0.382*[#  15]+0.057*[#   8]+0.057*[#   9]+0.057*[#  17]
          +0.057*[#  18]+0.002*[#   7]+0.002*[#  16]
    |psi|^2 = 0.997
==== e(  12) =    -8.69119 eV ==== 
     psi = 0.353*[#   6]+0.353*[#  15]+0.072*[#   8]+0.072*[#   9]+0.072*[#  17]
          +0.072*[#  18]
    |psi|^2 = 0.997
==== e(  13) =    -4.75100 eV ==== 
     psi = 0.247*[#   8]+0.247*[#   9]+0.247*[#  17]+0.247*[#  18]+0.004*[#   6]
          +0.004*[#  15]
    |psi|^2 = 0.997
==== e(  14) =    -2.44095 eV ==== 
     psi = 0.385*[#   7]+0.385*[#  16]+0.037*[#   8]+0.037*[#   9]+0.037*[#  17]
          +0.037*[#  18]+0.035*[#   6]+0.035*[#  15]
    |psi|^2 = 0.989
==== e(  15) =    -1.83457 eV ==== 
     psi = 0.393*[#   7]+0.393*[#  16]+0.033*[#   6]+0.033*[#  15]+0.032*[#   8]
          +0.032*[#   9]+0.032*[#  17]+0.032*[#  18]
    |psi|^2 = 0.981
==== e(  16) =     1.72059 eV ==== 
     psi = 0.123*[#   8]+0.123*[#   9]+0.123*[#  17]+0.123*[#  18]+0.090*[#   7]
          +0.091*[#  16]+0.090*[#   6]+0.090*[#  15]
    |psi|^2 = 0.854
==== e(  17) =     1.75605 eV ==== 
     psi = 0.136*[#   8]+0.136*[#   9]+0.136*[#  17]+0.136*[#  18]+0.003*[#   7]
          +0.003*[#  16]
    |psi|^2 = 0.553
==== e(  18) =     3.00924 eV ==== 
     psi = 0.093*[#   8]+0.093*[#   9]+0.093*[#  17]+0.093*[#  18]+0.059*[#   7]
          +0.059*[#  16]+0.043*[#   6]+0.043*[#  15]
    |psi|^2 = 0.579

 k =   0.2916666667  0.5051814855  0.0000000000
==== e(   1) =   -23.57556 eV ==== 
     psi = 0.205*[#   4]+0.205*[#   5]+0.205*[#  13]+0.205*[#  14]+0.045*[#   2]
          +0.045*[#   3]+0.045*[#  11]+0.045*[#  12]
    |psi|^2 = 1.000
==== e(   2) =   -23.52509 eV ==== 
     psi = 0.248*[#   1]+0.246*[#  10]+0.088*[#  11]+0.088*[#  12]+0.088*[#   2]
          +0.088*[#   3]+0.038*[#   4]+0.038*[#   5]+0.038*[#  13]+0.038*[#  14]
          
    |psi|^2 = 1.000
==== e(   3) =   -23.51459 eV ==== 
     psi = 0.289*[#  10]+0.289*[#   1]+0.090*[#   2]+0.090*[#   3]+0.090*[#  11]
          +0.090*[#  12]+0.016*[#   4]+0.016*[#   5]+0.016*[#  13]+0.016*[#  14]
          
    |psi|^2 = 1.000
==== e(   4) =   -23.39406 eV ==== 
     psi = 0.227*[#   2]+0.227*[#   3]+0.226*[#  11]+0.226*[#  12]+0.023*[#   4]
          +0.023*[#   5]+0.023*[#  13]+0.023*[#  14]+0.001*[#   1]+0.001*[#  10]
          
    |psi|^2 = 1.000
==== e(   5) =   -23.33857 eV ==== 
     psi = 0.160*[#   2]+0.160*[#   3]+0.158*[#  11]+0.158*[#  12]+0.086*[#   4]
          +0.086*[#   5]+0.084*[#  13]+0.084*[#  14]+0.012*[#   1]+0.012*[#  10]
          
    |psi|^2 = 1.000
==== e(   6) =   -23.32738 eV ==== 
     psi = 0.171*[#  13]+0.171*[#  14]+0.169*[#   4]+0.169*[#   5]+0.080*[#  11]
          +0.080*[#  12]+0.079*[#   2]+0.079*[#   3]
    |psi|^2 = 1.000
==== e(   7) =   -23.30826 eV ==== 
     psi = 0.155*[#  11]+0.155*[#  12]+0.155*[#   2]+0.155*[#   3]+0.077*[#  13]
          +0.077*[#  14]+0.076*[#   4]+0.076*[#   5]+0.037*[#   1]+0.037*[#  10]
          
    |psi|^2 = 1.000
==== e(   8) =   -23.25615 eV ==== 
     psi = 0.252*[#  10]+0.251*[#   1]+0.091*[#   2]+0.091*[#   3]+0.091*[#  11]
          +0.091*[#  12]+0.033*[#   4]+0.033*[#   5]+0.033*[#  13]+0.033*[#  14]
          
    |psi|^2 = 1.000
==== e(   9) =   -23.22271 eV ==== 
     psi = 0.163*[#   1]+0.163*[#  10]+0.118*[#  13]+0.118*[#  14]+0.118*[#   4]
          +0.118*[#   5]+0.051*[#   2]+0.051*[#   3]+0.051*[#  11]+0.051*[#  12]
          
    |psi|^2 = 1.000
==== e(  10) =   -23.07099 eV ==== 
     psi = 0.235*[#  13]+0.235*[#  14]+0.235*[#   4]+0.235*[#   5]+0.015*[#   2]
          +0.015*[#   3]+0.015*[#  11]+0.015*[#  12]
    |psi|^2 = 1.000
==== e(  11) =    -9.45820 eV ==== 
     psi = 0.381*[#   6]+0.380*[#  15]+0.057*[#   8]+0.057*[#   9]+0.057*[#  17]
          +0.057*[#  18]+0.002*[#   7]+0.002*[#  16]
    |psi|^2 = 0.997
==== e(  12) =    -8.59760 eV ==== 
     psi = 0.356*[#   6]+0.356*[#  15]+0.070*[#   8]+0.070*[#   9]+0.070*[#  17]
          +0.070*[#  18]
    |psi|^2 = 0.997
==== e(  13) =    -4.76371 eV ==== 
     psi = 0.248*[#   8]+0.248*[#   9]+0.248*[#  17]+0.248*[#  18]+0.002*[#   6]
          +0.002*[#  15]
    |psi|^2 = 0.997
==== e(  14) =    -2.50050 eV ==== 
     psi = 0.388*[#   7]+0.388*[#  16]+0.036*[#   8]+0.036*[#   9]+0.036*[#  17]
          +0.036*[#  18]+0.033*[#   6]+0.033*[#  15]
    |psi|^2 = 0.988
==== e(  15) =    -1.75954 eV ==== 
     psi = 0.393*[#   7]+0.393*[#  16]+0.034*[#   6]+0.034*[#  15]+0.032*[#   8]
          +0.032*[#   9]+0.032*[#  17]+0.032*[#  18]
    |psi|^2 = 0.983
==== e(  16) =     1.72374 eV ==== 
     psi = 0.143*[#   8]+0.143*[#   9]+0.143*[#  17]+0.143*[#  18]+0.005*[#   6]
          +0.005*[#  15]
    |psi|^2 = 0.583
==== e(  17) =     2.12437 eV ==== 
     psi = 0.128*[#   8]+0.128*[#   9]+0.128*[#  17]+0.128*[#  18]+0.094*[#   6]
          +0.095*[#  15]+0.093*[#   7]+0.093*[#  16]
    |psi|^2 = 0.888
==== e(  18) =     2.55730 eV ==== 
     psi = 0.105*[#   8]+0.105*[#   9]+0.105*[#  17]+0.105*[#  18]+0.064*[#   7]
          +0.064*[#  16]+0.050*[#   6]+0.050*[#  15]
    |psi|^2 = 0.650

 k =   0.2916666667  0.5532940080  0.0000000000
==== e(   1) =   -23.57701 eV ==== 
     psi = 0.206*[#   4]+0.206*[#   5]+0.206*[#  13]+0.206*[#  14]+0.043*[#   2]
          +0.043*[#   3]+0.043*[#  11]+0.043*[#  12]
    |psi|^2 = 1.000
==== e(   2) =   -23.52264 eV ==== 
     psi = 0.260*[#   1]+0.258*[#  10]+0.088*[#  11]+0.088*[#  12]+0.088*[#   2]
          +0.088*[#   3]+0.032*[#  13]+0.032*[#  14]+0.032*[#   4]+0.032*[#   5]
          
    |psi|^2 = 1.000
==== e(   3) =   -23.51742 eV ==== 
     psi = 0.281*[#  10]+0.280*[#   1]+0.090*[#   2]+0.090*[#   3]+0.090*[#  11]
          +0.090*[#  12]+0.019*[#   4]+0.019*[#   5]+0.019*[#  13]+0.019*[#  14]
          
    |psi|^2 = 1.000
==== e(   4) =   -23.39134 eV ==== 
     psi = 0.234*[#   2]+0.234*[#   3]+0.233*[#  11]+0.233*[#  12]+0.016*[#   4]
          +0.016*[#   5]+0.016*[#  13]+0.016*[#  14]
    |psi|^2 = 1.000
==== e(   5) =   -23.33581 eV ==== 
     psi = 0.135*[#   2]+0.135*[#   3]+0.134*[#  11]+0.134*[#  12]+0.115*[#   4]
          +0.115*[#   5]+0.113*[#  13]+0.113*[#  14]+0.002*[#   1]+0.002*[#  10]
          
    |psi|^2 = 1.000
==== e(   6) =   -23.32311 eV ==== 
     psi = 0.129*[#   4]+0.129*[#   5]+0.129*[#  13]+0.129*[#  14]+0.116*[#  11]
          +0.116*[#  12]+0.116*[#   2]+0.116*[#   3]+0.009*[#   1]+0.009*[#  10]
          
    |psi|^2 = 1.000
==== e(   7) =   -23.31526 eV ==== 
     psi = 0.142*[#  11]+0.142*[#  12]+0.140*[#   2]+0.140*[#   3]+0.099*[#  13]
          +0.099*[#  14]+0.096*[#   4]+0.096*[#   5]+0.023*[#   1]+0.023*[#  10]
          
    |psi|^2 = 1.000
==== e(   8) =   -23.25009 eV ==== 
     psi = 0.239*[#  10]+0.238*[#   1]+0.082*[#   2]+0.082*[#   3]+0.082*[#  11]
          +0.082*[#  12]+0.048*[#   4]+0.048*[#   5]+0.048*[#  13]+0.048*[#  14]
          
    |psi|^2 = 1.000
==== e(   9) =   -23.23176 eV ==== 
     psi = 0.187*[#   1]+0.187*[#  10]+0.100*[#  13]+0.100*[#  14]+0.100*[#   4]
          +0.100*[#   5]+0.056*[#  11]+0.056*[#  12]+0.056*[#   2]+0.056*[#   3]
          
    |psi|^2 = 1.000
==== e(  10) =   -23.06868 eV ==== 
     psi = 0.236*[#  13]+0.236*[#  14]+0.236*[#   4]+0.236*[#   5]+0.014*[#   2]
          +0.014*[#   3]+0.014*[#  11]+0.014*[#  12]
    |psi|^2 = 1.000
==== e(  11) =    -9.26136 eV ==== 
     psi = 0.376*[#   6]+0.376*[#  15]+0.060*[#   8]+0.060*[#   9]+0.060*[#  17]
          +0.060*[#  18]+0.002*[#   7]+0.002*[#  16]
    |psi|^2 = 0.997
==== e(  12) =    -8.80915 eV ==== 
     psi = 0.361*[#  15]+0.361*[#   6]+0.068*[#   8]+0.068*[#   9]+0.068*[#  17]
          +0.068*[#  18]
    |psi|^2 = 0.997
==== e(  13) =    -4.82878 eV ==== 
     psi = 0.249*[#   8]+0.249*[#   9]+0.249*[#  17]+0.249*[#  18]+0.001*[#   6]
          +0.001*[#  15]
    |psi|^2 = 0.997
==== e(  14) =    -2.32756 eV ==== 
     psi = 0.389*[#   7]+0.389*[#  16]+0.035*[#   8]+0.035*[#   9]+0.035*[#  17]
          +0.035*[#  18]+0.034*[#   6]+0.034*[#  15]
    |psi|^2 = 0.988
==== e(  15) =    -1.93415 eV ==== 
     psi = 0.393*[#   7]+0.393*[#  16]+0.034*[#   6]+0.034*[#  15]+0.032*[#   8]
          +0.032*[#   9]+0.032*[#  17]+0.032*[#  18]
    |psi|^2 = 0.984
==== e(  16) =     1.68031 eV ==== 
     psi = 0.139*[#   8]+0.139*[#   9]+0.139*[#  17]+0.139*[#  18]
    |psi|^2 = 0.559
==== e(  17) =     2.26059 eV ==== 
     psi = 0.132*[#   8]+0.132*[#   9]+0.132*[#  17]+0.132*[#  18]+0.090*[#   6]
          +0.090*[#  15]+0.090*[#   7]+0.090*[#  16]
    |psi|^2 = 0.887
==== e(  18) =     2.85339 eV ==== 
     psi = 0.123*[#   8]+0.123*[#   9]+0.123*[#  17]+0.123*[#  18]+0.078*[#   7]
          +0.078*[#  16]+0.066*[#   6]+0.066*[#  15]
    |psi|^2 = 0.780

 k =   0.3333333333  0.5773502692  0.0000000000
==== e(   1) =   -23.57781 eV ==== 
     psi = 0.207*[#   4]+0.207*[#   5]+0.207*[#  13]+0.207*[#  14]+0.043*[#   2]
          +0.043*[#   3]+0.043*[#  11]+0.043*[#  12]
    |psi|^2 = 1.000
==== e(   2) =   -23.52008 eV ==== 
     psi = 0.542*[#   1]+0.179*[#  11]+0.179*[#  12]+0.050*[#  13]+0.050*[#  14]
          
    |psi|^2 = 1.000
==== e(   3) =   -23.52006 eV ==== 
     psi = 0.542*[#  10]+0.179*[#   2]+0.179*[#   3]+0.050*[#   4]+0.050*[#   5]
          
    |psi|^2 = 1.000
==== e(   4) =   -23.39020 eV ==== 
     psi = 0.236*[#   2]+0.236*[#   3]+0.235*[#  11]+0.235*[#  12]+0.014*[#   4]
          +0.014*[#   5]+0.014*[#  13]+0.014*[#  14]
    |psi|^2 = 1.000
==== e(   5) =   -23.32623 eV ==== 
     psi = 0.208*[#  11]+0.208*[#  12]+0.206*[#   2]+0.206*[#   3]+0.043*[#   4]
          +0.043*[#   5]+0.043*[#  13]+0.043*[#  14]
    |psi|^2 = 1.000
==== e(   6) =   -23.32378 eV ==== 
     psi = 0.304*[#   4]+0.304*[#   5]+0.183*[#   2]+0.183*[#   3]+0.025*[#  10]
          
    |psi|^2 = 1.000
==== e(   7) =   -23.32363 eV ==== 
     psi = 0.304*[#  13]+0.304*[#  14]+0.183*[#  11]+0.183*[#  12]+0.025*[#   1]
          
    |psi|^2 = 1.000
==== e(   8) =   -23.24188 eV ==== 
     psi = 0.433*[#  10]+0.145*[#   4]+0.145*[#   5]+0.137*[#   2]+0.137*[#   3]
          +0.001*[#  15]
    |psi|^2 = 1.000
==== e(   9) =   -23.24186 eV ==== 
     psi = 0.433*[#   1]+0.146*[#  13]+0.146*[#  14]+0.138*[#  11]+0.138*[#  12]
          +0.001*[#   6]
    |psi|^2 = 1.000
==== e(  10) =   -23.06747 eV ==== 
     psi = 0.236*[#  13]+0.236*[#  14]+0.236*[#   4]+0.236*[#   5]+0.014*[#   2]
          +0.014*[#   3]+0.014*[#  11]+0.014*[#  12]
    |psi|^2 = 1.000
==== e(  11) =    -9.03679 eV ==== 
     psi = 0.737*[#   6]+0.128*[#  17]+0.128*[#  18]+0.002*[#   7]
    |psi|^2 = 0.997
==== e(  12) =    -9.03671 eV ==== 
     psi = 0.737*[#  15]+0.128*[#   8]+0.128*[#   9]+0.002*[#  16]
    |psi|^2 = 0.997
==== e(  13) =    -4.86498 eV ==== 
     psi = 0.249*[#   8]+0.249*[#   9]+0.249*[#  17]+0.249*[#  18]
    |psi|^2 = 0.997
==== e(  14) =    -2.12928 eV ==== 
     psi = 0.784*[#   7]+0.068*[#   6]+0.067*[#  17]+0.067*[#  18]
    |psi|^2 = 0.986
==== e(  15) =    -2.12924 eV ==== 
     psi = 0.784*[#  16]+0.068*[#  15]+0.067*[#   8]+0.067*[#   9]
    |psi|^2 = 0.986
==== e(  16) =     1.64720 eV ==== 
     psi = 0.139*[#   8]+0.139*[#   9]+0.139*[#  17]+0.139*[#  18]
    |psi|^2 = 0.558
==== e(  17) =     2.68970 eV ==== 
     psi = 0.278*[#   8]+0.278*[#   9]+0.179*[#  16]+0.172*[#  15]+0.004*[#  17]
          +0.004*[#  18]+0.002*[#   6]+0.002*[#   7]
    |psi|^2 = 0.920
==== e(  18) =     2.68972 eV ==== 
     psi = 0.278*[#  17]+0.278*[#  18]+0.179*[#   7]+0.172*[#   6]+0.004*[#   8]
          +0.004*[#   9]+0.002*[#  15]+0.002*[#  16]
    |psi|^2 = 0.919

Lowdin Charges: 

     Atom #   1: total charge =  13.9814, s =  1.5718, 
     Atom #   1: total charge =  13.9814, p =  2.4156, pz=  0.7393, px=  0.8382, py=  0.8382, 
     Atom #   1: total charge =  13.9814, d =  9.9940, dz2=  1.9990, dxz=  1.9992, dyz=  1.9992, dx2-y2=  1.9983, dxy=  1.9983, 
     Atom #   2: total charge =  13.9815, s =  1.5718, 
     Atom #   2: total charge =  13.9815, p =  2.4157, pz=  0.7393, px=  0.8382, py=  0.8382, 
     Atom #   2: total charge =  13.9815, d =  9.9940, dz2=  1.9990, dxz=  1.9992, dyz=  1.9992, dx2-y2=  1.9983, dxy=  1.9983, 
     Spilling Parameter:   0.0013

     PROJWFC      :     31.35s CPU     46.63s WALL


   This run was terminated on:   0:16:58  24Jan2024            

=------------------------------------------------------------------------------=
   JOB DONE.
=------------------------------------------------------------------------------=
