
     Program PWSCF v.6.7MaX starts on 24Jan2024 at  0:16:11 

     This program is part of the open-source Quantum ESPRESSO suite
     for quantum simulation of materials; please cite
         "P. Giannozzi et al., J. Phys.:Condens. Matter 21 395502 (2009);
         "P. Giannozzi et al., J. Phys.:Condens. Matter 29 465901 (2017);
          URL http://www.quantum-espresso.org", 
     in publications or presentations arising from this work. More details at
     http://www.quantum-espresso.org/quote

     Parallel version (MPI), running on     6 processors

     MPI processes distributed on     1 nodes
     R & G space division:  proc/nbgrp/npool/nimage =       6
     Waiting for input...
     Reading input from standard input

     Current dimensions of program PWSCF are:
     Max number of different atomic species (ntypx) = 10
     Max number of k-points (npk) =  40000
     Max angular momentum in pseudopotentials (lmaxx) =  3

     Subspace diagonalization in iterative solution of the eigenvalue problem:
     one sub-group per band group will be used
     scalapack distributed-memory algorithm (size of sub-group:  2*  2 procs)


     Parallelization info
     --------------------
     sticks:   dense  smooth     PW     G-vecs:    dense   smooth      PW
     Min         431     214     61                75909    26818    4015
     Max         432     215     62                75924    26841    4025
     Sum        2587    1285    367               455489   160939   24117



     bravais-lattice index     =            4
     lattice parameter (alat)  =       8.8506  a.u.
     unit-cell volume          =    2563.9136 (a.u.)^3
     number of atoms/cell      =            2
     number of atomic types    =            1
     number of electrons       =        28.00
     number of Kohn-Sham states=           18
     kinetic-energy cutoff     =      60.0000  Ry
     charge density cutoff     =     480.0000  Ry
     scf convergence threshold =      1.0E-06
     mixing beta               =       0.7000
     number of iterations used =            8  plain     mixing
     Exchange-correlation= SLA  PW   PBE  PBE
                           (   1   4   3   4   0   0   0)

     celldm(1)=   8.850584  celldm(2)=   0.000000  celldm(3)=   4.270286
     celldm(4)=   0.000000  celldm(5)=   0.000000  celldm(6)=   0.000000

     crystal axes: (cart. coord. in units of alat)
               a(1) = (   1.000000   0.000000   0.000000 )  
               a(2) = (  -0.500000   0.866025   0.000000 )  
               a(3) = (   0.000000   0.000000   4.270286 )  

     reciprocal axes: (cart. coord. in units 2 pi/alat)
               b(1) = (  1.000000  0.577350 -0.000000 )  
               b(2) = (  0.000000  1.154701  0.000000 )  
               b(3) = (  0.000000 -0.000000  0.234176 )  


     PseudoPot. # 1 for Sn read from file:
     ../pseudo/Sn_pbe_v1.uspp.F.UPF
     MD5 check sum: 4cf58ce39ec5d5d420df3dd08604eb00
     Pseudo is Ultrasoft + core correction, Zval = 14.0
     Generated by new atomic code, or converted to UPF format
     Using radial grid of  891 points,  6 beta functions with: 
                l(1) =   0
                l(2) =   0
                l(3) =   1
                l(4) =   1
                l(5) =   2
                l(6) =   2
     Q(r) pseudized with  6 coefficients,  rinner =    1.200   1.200   1.200
                                                       1.200   1.200

     atomic species   valence    mass     pseudopotential
        Sn            14.00   118.71000     Sn( 1.00)

      6 Sym. Ops. (no inversion) found



   Cartesian axes

     site n.     atom                  positions (alat units)
         1           Sn  tau(   1) = (   0.0000000   0.5773503   2.1351428  )
         2           Sn  tau(   2) = (   0.5000000   0.2886751   1.9552503  )

     number of k points=    61  Methfessel-Paxton smearing, width (Ry)=  0.0200
                       cart. coord. in units 2pi/alat
        k(    1) = (   0.0000000   0.0000000   0.0000000), wk =   0.0034722
        k(    2) = (   0.0000000   0.0481125   0.0000000), wk =   0.0208333
        k(    3) = (   0.0000000   0.0962250   0.0000000), wk =   0.0208333
        k(    4) = (   0.0000000   0.1443376   0.0000000), wk =   0.0208333
        k(    5) = (   0.0000000   0.1924501   0.0000000), wk =   0.0208333
        k(    6) = (   0.0000000   0.2405626   0.0000000), wk =   0.0208333
        k(    7) = (   0.0000000   0.2886751   0.0000000), wk =   0.0208333
        k(    8) = (   0.0000000   0.3367877   0.0000000), wk =   0.0208333
        k(    9) = (   0.0000000   0.3849002   0.0000000), wk =   0.0208333
        k(   10) = (   0.0000000   0.4330127   0.0000000), wk =   0.0208333
        k(   11) = (   0.0000000   0.4811252   0.0000000), wk =   0.0208333
        k(   12) = (   0.0000000   0.5292377   0.0000000), wk =   0.0208333
        k(   13) = (   0.0000000  -0.5773503   0.0000000), wk =   0.0104167
        k(   14) = (   0.0416667   0.0721688   0.0000000), wk =   0.0208333
        k(   15) = (   0.0416667   0.1202813   0.0000000), wk =   0.0416667
        k(   16) = (   0.0416667   0.1683938   0.0000000), wk =   0.0416667
        k(   17) = (   0.0416667   0.2165064   0.0000000), wk =   0.0416667
        k(   18) = (   0.0416667   0.2646189   0.0000000), wk =   0.0416667
        k(   19) = (   0.0416667   0.3127314   0.0000000), wk =   0.0416667
        k(   20) = (   0.0416667   0.3608439   0.0000000), wk =   0.0416667
        k(   21) = (   0.0416667   0.4089564   0.0000000), wk =   0.0416667
        k(   22) = (   0.0416667   0.4570690   0.0000000), wk =   0.0416667
        k(   23) = (   0.0416667   0.5051815   0.0000000), wk =   0.0416667
        k(   24) = (   0.0416667   0.5532940   0.0000000), wk =   0.0416667
        k(   25) = (   0.0833333   0.1443376   0.0000000), wk =   0.0208333
        k(   26) = (   0.0833333   0.1924501   0.0000000), wk =   0.0416667
        k(   27) = (   0.0833333   0.2405626   0.0000000), wk =   0.0416667
        k(   28) = (   0.0833333   0.2886751   0.0000000), wk =   0.0416667
        k(   29) = (   0.0833333   0.3367877   0.0000000), wk =   0.0416667
        k(   30) = (   0.0833333   0.3849002   0.0000000), wk =   0.0416667
        k(   31) = (   0.0833333   0.4330127   0.0000000), wk =   0.0416667
        k(   32) = (   0.0833333   0.4811252   0.0000000), wk =   0.0416667
        k(   33) = (   0.0833333   0.5292377   0.0000000), wk =   0.0416667
        k(   34) = (   0.0833333   0.5773503   0.0000000), wk =   0.0208333
        k(   35) = (   0.1250000   0.2165064   0.0000000), wk =   0.0208333
        k(   36) = (   0.1250000   0.2646189   0.0000000), wk =   0.0416667
        k(   37) = (   0.1250000   0.3127314   0.0000000), wk =   0.0416667
        k(   38) = (   0.1250000   0.3608439   0.0000000), wk =   0.0416667
        k(   39) = (   0.1250000   0.4089564   0.0000000), wk =   0.0416667
        k(   40) = (   0.1250000   0.4570690   0.0000000), wk =   0.0416667
        k(   41) = (   0.1250000   0.5051815   0.0000000), wk =   0.0416667
        k(   42) = (   0.1250000   0.5532940   0.0000000), wk =   0.0416667
        k(   43) = (   0.1666667   0.2886751   0.0000000), wk =   0.0208333
        k(   44) = (   0.1666667   0.3367877   0.0000000), wk =   0.0416667
        k(   45) = (   0.1666667   0.3849002   0.0000000), wk =   0.0416667
        k(   46) = (   0.1666667   0.4330127   0.0000000), wk =   0.0416667
        k(   47) = (   0.1666667   0.4811252   0.0000000), wk =   0.0416667
        k(   48) = (   0.1666667   0.5292377   0.0000000), wk =   0.0416667
        k(   49) = (   0.1666667   0.5773503   0.0000000), wk =   0.0208333
        k(   50) = (   0.2083333   0.3608439   0.0000000), wk =   0.0208333
        k(   51) = (   0.2083333   0.4089564   0.0000000), wk =   0.0416667
        k(   52) = (   0.2083333   0.4570690   0.0000000), wk =   0.0416667
        k(   53) = (   0.2083333   0.5051815   0.0000000), wk =   0.0416667
        k(   54) = (   0.2083333   0.5532940   0.0000000), wk =   0.0416667
        k(   55) = (   0.2500000   0.4330127   0.0000000), wk =   0.0208333
        k(   56) = (   0.2500000   0.4811252   0.0000000), wk =   0.0416667
        k(   57) = (   0.2500000   0.5292377   0.0000000), wk =   0.0416667
        k(   58) = (   0.2500000   0.5773503   0.0000000), wk =   0.0208333
        k(   59) = (   0.2916667   0.5051815   0.0000000), wk =   0.0208333
        k(   60) = (   0.2916667   0.5532940   0.0000000), wk =   0.0416667
        k(   61) = (   0.3333333   0.5773503   0.0000000), wk =   0.0069444

     Dense  grid:   455489 G-vectors     FFT dimensions: (  64,  64, 270)

     Smooth grid:   160939 G-vectors     FFT dimensions: (  45,  45, 192)

     Estimated max dynamical RAM per process >     322.30 MB

     Estimated total dynamical RAM >       1.89 GB

     Initial potential from superposition of free atoms

     starting charge   25.99991, renormalised to   28.00000

     negative rho (up, down):  5.949E-04 0.000E+00
     Starting wfcs are   18 randomized atomic wfcs

     total cpu time spent up to now is       50.9 secs

     Self-consistent Calculation

     iteration #  1     ecut=    60.00 Ry     beta= 0.70
     Davidson diagonalization with overlap
     ethr =  1.00E-02,  avg # of iterations =  8.8

     negative rho (up, down):  1.302E-04 0.000E+00

     total cpu time spent up to now is      104.6 secs

     total energy              =    -325.45986837 Ry
     estimated scf accuracy    <       2.46596788 Ry

     iteration #  2     ecut=    60.00 Ry     beta= 0.70
     Davidson diagonalization with overlap
     ethr =  8.81E-03,  avg # of iterations =  2.1

     negative rho (up, down):  9.908E-05 0.000E+00

     total cpu time spent up to now is      147.1 secs

     total energy              =    -326.35854239 Ry
     estimated scf accuracy    <       0.38077112 Ry

     iteration #  3     ecut=    60.00 Ry     beta= 0.70
     Davidson diagonalization with overlap
     ethr =  1.36E-03,  avg # of iterations =  2.2

     negative rho (up, down):  8.239E-05 0.000E+00

     total cpu time spent up to now is      188.1 secs

     total energy              =    -326.41648272 Ry
     estimated scf accuracy    <       0.00620488 Ry

     iteration #  4     ecut=    60.00 Ry     beta= 0.70
     Davidson diagonalization with overlap
     c_bands:  1 eigenvalues not converged
     ethr =  2.22E-05,  avg # of iterations =  8.4

     negative rho (up, down):  8.386E-05 0.000E+00

     total cpu time spent up to now is      234.8 secs

     total energy              =    -326.41850239 Ry
     estimated scf accuracy    <       0.00034436 Ry

     iteration #  5     ecut=    60.00 Ry     beta= 0.70
     Davidson diagonalization with overlap
     ethr =  1.23E-06,  avg # of iterations =  4.7

     negative rho (up, down):  8.438E-05 0.000E+00

     total cpu time spent up to now is      268.8 secs

     total energy              =    -326.41853752 Ry
     estimated scf accuracy    <       0.00003717 Ry

     iteration #  6     ecut=    60.00 Ry     beta= 0.70
     Davidson diagonalization with overlap
     ethr =  1.33E-07,  avg # of iterations =  2.2

     negative rho (up, down):  8.525E-05 0.000E+00

     total cpu time spent up to now is      305.4 secs

     total energy              =    -326.41854531 Ry
     estimated scf accuracy    <       0.00001433 Ry

     iteration #  7     ecut=    60.00 Ry     beta= 0.70
     Davidson diagonalization with overlap
     ethr =  5.12E-08,  avg # of iterations =  2.0

     negative rho (up, down):  8.562E-05 0.000E+00

     total cpu time spent up to now is      342.5 secs

     End of self-consistent calculation

          k = 0.0000 0.0000 0.0000 ( 20025 PWs)   bands (ev):

   -23.5251 -23.5251 -23.4468 -23.4468 -23.4321 -23.3622 -23.2201 -23.2201
   -23.1641 -23.1641 -11.3707  -5.2729  -2.4011  -2.4011  -1.9416  -0.0641
     1.0940   1.0940

          k = 0.0000 0.0481 0.0000 ( 20035 PWs)   bands (ev):

   -23.5260 -23.5258 -23.4485 -23.4456 -23.4298 -23.3609 -23.2226 -23.2224
   -23.1628 -23.1618 -11.3560  -5.2960  -2.6904  -2.4336  -1.6341  -0.0629
     1.0640   1.1498

          k = 0.0000 0.0962 0.0000 ( 20005 PWs)   bands (ev):

   -23.5284 -23.5279 -23.4523 -23.4423 -23.4244 -23.3572 -23.2290 -23.2285
   -23.1596 -23.1560 -11.3120  -5.3736  -3.0772  -2.5241  -1.1982  -0.0629
     1.0087   1.3092

          k = 0.0000 0.1443 0.0000 ( 20065 PWs)   bands (ev):

   -23.5317 -23.5309 -23.4571 -23.4373 -23.4179 -23.3511 -23.2376 -23.2369
   -23.1558 -23.1484 -11.2389  -5.5263  -3.3871  -2.6559  -0.8343  -0.0727
     1.0128   1.5520

          k = 0.0000 0.1925 0.0000 ( 20113 PWs)   bands (ev):

   -23.5349 -23.5342 -23.4624 -23.4313 -23.4116 -23.3427 -23.2470 -23.2463
   -23.1525 -23.1402 -11.1372  -5.7702  -3.5824  -2.8099  -0.6337  -0.0957
     1.1574   2.1784

          k = 0.0000 0.2406 0.0000 ( 20071 PWs)   bands (ev):

   -23.5376 -23.5376 -23.4683 -23.4250 -23.4063 -23.3325 -23.2565 -23.2555
   -23.1504 -23.1323 -11.0078  -6.0962  -3.6630  -2.9704  -0.6210  -0.1247
     1.4163   2.2893

          k = 0.0000 0.2887 0.0000 ( 20087 PWs)   bands (ev):

   -23.5406 -23.5393 -23.4745 -23.4187 -23.4025 -23.3210 -23.2656 -23.2638
   -23.1496 -23.1248 -10.8522  -6.4747  -3.6535  -3.1253  -0.7261  -0.1729
     1.6524   2.4646

          k = 0.0000 0.3368 0.0000 ( 20109 PWs)   bands (ev):

   -23.5432 -23.5398 -23.4811 -23.4130 -23.4001 -23.3092 -23.2738 -23.2704
   -23.1502 -23.1182 -10.6727  -6.8746  -3.5824  -3.2665  -0.8799  -0.2533
     1.8065   2.6672

          k = 0.0000 0.3849 0.0000 ( 20145 PWs)   bands (ev):

   -23.5452 -23.5390 -23.4877 -23.4079 -23.3991 -23.2989 -23.2808 -23.2741
   -23.1520 -23.1125 -10.4736  -7.2715  -3.4726  -3.3879  -1.0501  -0.3577
     1.9379   2.8823

          k = 0.0000 0.4330 0.0000 ( 20161 PWs)   bands (ev):

   -23.5468 -23.5370 -23.4943 -23.4039 -23.3990 -23.2932 -23.2865 -23.2727
   -23.1547 -23.1080 -10.2632  -7.6448  -3.4858  -3.3438  -1.2210  -0.4654
     2.0863   3.1009

          k = 0.0000 0.4811 0.0000 ( 20157 PWs)   bands (ev):

   -23.5479 -23.5342 -23.5004 -23.4009 -23.3994 -23.2923 -23.2906 -23.2670
   -23.1577 -23.1047 -10.0580  -7.9705  -3.5574  -3.2175  -1.3760  -0.5554
     2.2510   3.2805

          k = 0.0000 0.5292 0.0000 ( 20142 PWs)   bands (ev):

   -23.5485 -23.5314 -23.5052 -23.3999 -23.3992 -23.2932 -23.2927 -23.2618
   -23.1601 -23.1027  -9.8927  -8.2096  -3.6010  -3.1208  -1.4902  -0.6138
     2.4011   3.3375

          k = 0.0000-0.5774 0.0000 ( 20152 PWs)   bands (ev):

   -23.5487 -23.5301 -23.5071 -23.4000 -23.3986 -23.2940 -23.2930 -23.2598
   -23.1610 -23.1021  -9.8252  -8.3019  -3.6156  -3.0838  -1.5333  -0.6339
     2.4685   3.3897

          k = 0.0417 0.0722 0.0000 ( 20017 PWs)   bands (ev):

   -23.5276 -23.5273 -23.4511 -23.4435 -23.4259 -23.3585 -23.2271 -23.2265
   -23.1607 -23.1576 -11.3267  -5.3463  -2.9765  -2.4994  -1.3083  -0.0624
     1.0117   1.2660

          k = 0.0417 0.1203 0.0000 ( 20039 PWs)   bands (ev):

   -23.5303 -23.5300 -23.4551 -23.4397 -23.4199 -23.3536 -23.2347 -23.2335
   -23.1576 -23.1507 -11.2681  -5.4619  -3.2841  -2.6205  -0.9269  -0.0682
     0.9580   1.4877

          k = 0.0417 0.1684 0.0000 ( 20081 PWs)   bands (ev):

   -23.5338 -23.5329 -23.4600 -23.4346 -23.4132 -23.3465 -23.2436 -23.2421
   -23.1545 -23.1427 -11.1806  -5.6618  -3.5124  -2.7745  -0.6314  -0.0892
     0.9964   1.7825

          k = 0.0417 0.2165 0.0000 ( 20075 PWs)   bands (ev):

   -23.5373 -23.5356 -23.4656 -23.4288 -23.4069 -23.3373 -23.2529 -23.2513
   -23.1523 -23.1344 -11.0651  -5.9492  -3.6338  -2.9414  -0.5182  -0.1147
     1.1863   2.0977

          k = 0.0417 0.2646 0.0000 ( 20107 PWs)   bands (ev):

   -23.5407 -23.5376 -23.4716 -23.4228 -23.4018 -23.3267 -23.2619 -23.2601
   -23.1513 -23.1265 -10.9224  -6.3027  -3.6597  -3.1059  -0.5819  -0.1368
     1.4644   2.2932

          k = 0.0417 0.3127 0.0000 ( 20105 PWs)   bands (ev):

   -23.5436 -23.5385 -23.4781 -23.4170 -23.3982 -23.3153 -23.2703 -23.2677
   -23.1517 -23.1193 -10.7545  -6.6915  -3.6176  -3.2549  -0.7315  -0.1833
     1.7013   2.4992

          k = 0.0417 0.3608 0.0000 ( 20127 PWs)   bands (ev):

   -23.5460 -23.5383 -23.4847 -23.4118 -23.3960 -23.3043 -23.2777 -23.2728
   -23.1533 -23.1130 -10.5646  -7.0890  -3.5480  -3.3648  -0.9123  -0.2597
     1.8668   2.7229

          k = 0.0417 0.4090 0.0000 ( 20135 PWs)   bands (ev):

   -23.5478 -23.5369 -23.4913 -23.4074 -23.3952 -23.2964 -23.2839 -23.2739
   -23.1560 -23.1077 -10.3584  -7.4738  -3.5594  -3.3417  -1.1019  -0.3507
     2.0160   2.9076

          k = 0.0417 0.4571 0.0000 ( 20146 PWs)   bands (ev):

   -23.5491 -23.5346 -23.4977 -23.4038 -23.3953 -23.2937 -23.2887 -23.2697
   -23.1593 -23.1037 -10.1473  -7.8250  -3.6294  -3.2244  -1.2841  -0.4362
     2.1752   3.0343

          k = 0.0417 0.5052 0.0000 ( 20148 PWs)   bands (ev):

   -23.5499 -23.5317 -23.5032 -23.4010 -23.3961 -23.2938 -23.2918 -23.2639
   -23.1624 -23.1009  -9.9556  -8.1129  -3.6842  -3.1087  -1.4365  -0.5005
     2.3308   3.1211

          k = 0.0417 0.5533 0.0000 ( 20150 PWs)   bands (ev):

   -23.5503 -23.5295 -23.5068 -23.3989 -23.3973 -23.2944 -23.2932 -23.2601
   -23.1642 -23.0995  -9.8306  -8.2866  -3.7127  -3.0361  -1.5270  -0.5346
     2.4367   3.2200

          k = 0.0833 0.1443 0.0000 ( 20061 PWs)   bands (ev):

   -23.5332 -23.5326 -23.4589 -23.4362 -23.4134 -23.3478 -23.2425 -23.2405
   -23.1557 -23.1432 -11.1952  -5.6258  -3.4771  -2.7786  -0.6037  -0.0897
     0.9000   1.7844

          k = 0.0833 0.1925 0.0000 ( 20087 PWs)   bands (ev):

   -23.5371 -23.5347 -23.4638 -23.4318 -23.4062 -23.3402 -23.2512 -23.2488
   -23.1544 -23.1348 -11.0938  -5.8726  -3.5993  -2.9656  -0.3481  -0.1311
     0.9357   2.2349

          k = 0.0833 0.2406 0.0000 ( 20121 PWs)   bands (ev):

   -23.5410 -23.5363 -23.4695 -23.4267 -23.3994 -23.3310 -23.2598 -23.2573
   -23.1541 -23.1263 -10.9647  -6.1906  -3.6407  -3.1552  -0.3464  -0.0958
     1.1315   2.2446

          k = 0.0833 0.2887 0.0000 ( 20106 PWs)   bands (ev):

   -23.5447 -23.5371 -23.4757 -23.4213 -23.3939 -23.3209 -23.2679 -23.2652
   -23.1551 -23.1182 -10.8094  -6.5548  -3.6209  -3.3246  -0.5089  -0.0580
     1.4333   2.3306

          k = 0.0833 0.3368 0.0000 ( 20114 PWs)   bands (ev):

   -23.5478 -23.5369 -23.4823 -23.4161 -23.3899 -23.3107 -23.2753 -23.2712
   -23.1573 -23.1109 -10.6302  -6.9395  -3.6076  -3.4153  -0.7139  -0.0733
     1.7221   2.4816

          k = 0.0833 0.3849 0.0000 ( 20126 PWs)   bands (ev):

   -23.5503 -23.5358 -23.4889 -23.4112 -23.3878 -23.3023 -23.2817 -23.2738
   -23.1607 -23.1047 -10.4311  -7.3232  -3.6937  -3.3455  -0.9347  -0.1192
     1.9411   2.6401

          k = 0.0833 0.4330 0.0000 ( 20149 PWs)   bands (ev):

   -23.5522 -23.5337 -23.4953 -23.4066 -23.3875 -23.2977 -23.2869 -23.2716
   -23.1647 -23.0996 -10.2200  -7.6869  -3.7936  -3.2137  -1.1548  -0.1755
     2.1174   2.7391

          k = 0.0833 0.4811 0.0000 ( 20151 PWs)   bands (ev):

   -23.5535 -23.5310 -23.5012 -23.4025 -23.3886 -23.2966 -23.2908 -23.2660
   -23.1689 -23.0959 -10.0131  -8.0071  -3.8706  -3.0745  -1.3539  -0.2262
     2.2639   2.8253

          k = 0.0833 0.5292 0.0000 ( 20157 PWs)   bands (ev):

   -23.5542 -23.5284 -23.5058 -23.3990 -23.3905 -23.2963 -23.2935 -23.2609
   -23.1721 -23.0937  -9.8449  -8.2448  -3.9180  -2.9628  -1.5015  -0.2606
     2.3575   2.9584

          k = 0.0833 0.5774 0.0000 ( 20154 PWs)   bands (ev):

   -23.5545 -23.5271 -23.5077 -23.3972 -23.3919 -23.2960 -23.2947 -23.2589
   -23.1733 -23.0929  -9.7756  -8.3375  -3.9340  -2.9184  -1.5580  -0.2727
     2.3868   3.0798

          k = 0.1250 0.2165 0.0000 ( 20099 PWs)   bands (ev):

   -23.5411 -23.5359 -23.4687 -23.4282 -23.3983 -23.3327 -23.2591 -23.2563
   -23.1554 -23.1260 -10.9789  -6.1516  -3.6260  -3.1877  -0.2296  -0.0479
     0.9372   2.2534

          k = 0.1250 0.2646 0.0000 ( 20119 PWs)   bands (ev):

   -23.5453 -23.5364 -23.4744 -23.4239 -23.3907 -23.3245 -23.2667 -23.2637
   -23.1575 -23.1172 -10.8370  -6.4809  -3.5987  -3.4038  -0.3733   0.1468
     1.0961   2.3055

          k = 0.1250 0.3127 0.0000 ( 20122 PWs)   bands (ev):

   -23.5492 -23.5360 -23.4807 -23.4190 -23.3843 -23.3161 -23.2738 -23.2699
   -23.1608 -23.1089 -10.6698  -6.8395  -3.6425  -3.4810  -0.5676   0.2188
     1.4055   2.3742

          k = 0.1250 0.3608 0.0000 ( 20112 PWs)   bands (ev):

   -23.5525 -23.5349 -23.4871 -23.4139 -23.3799 -23.3088 -23.2801 -23.2732
   -23.1653 -23.1015 -10.4802  -7.2083  -3.8095  -3.3694  -0.7925   0.2224
     1.7511   2.4416

          k = 0.1250 0.4090 0.0000 ( 20146 PWs)   bands (ev):

   -23.5553 -23.5329 -23.4935 -23.4088 -23.3779 -23.3040 -23.2855 -23.2723
   -23.1706 -23.0953 -10.2736  -7.5701  -3.9536  -3.2225  -1.0296   0.1988
     2.0408   2.4660

          k = 0.1250 0.4571 0.0000 ( 20145 PWs)   bands (ev):

   -23.5573 -23.5303 -23.4995 -23.4039 -23.3782 -23.3017 -23.2900 -23.2676
   -23.1762 -23.0905 -10.0604  -7.9058  -4.0639  -3.0634  -1.2593   0.1676
     2.2182   2.5261

          k = 0.1250 0.5052 0.0000 ( 20141 PWs)   bands (ev):

   -23.5587 -23.5275 -23.5046 -23.3993 -23.3801 -23.3003 -23.2936 -23.2620
   -23.1813 -23.0871  -9.8637  -8.1869  -4.1381  -2.9162  -1.4552   0.1408
     2.2555   2.7138

          k = 0.1250 0.5533 0.0000 ( 20145 PWs)   bands (ev):

   -23.5593 -23.5254 -23.5079 -23.3961 -23.3821 -23.2988 -23.2963 -23.2583
   -23.1844 -23.0855  -9.7326  -8.3610  -4.1754  -2.8206  -1.5757   0.1256
     2.2510   2.9308

          k = 0.1667 0.2887 0.0000 ( 20113 PWs)   bands (ev):

   -23.5497 -23.5357 -23.4801 -23.4201 -23.3820 -23.3183 -23.2733 -23.2694
   -23.1622 -23.1081 -10.6830  -6.8041  -3.6536  -3.5095  -0.5206   0.4364
     1.1635   2.3781

          k = 0.1667 0.3368 0.0000 ( 20110 PWs)   bands (ev):

   -23.5538 -23.5344 -23.4862 -23.4154 -23.3745 -23.3135 -23.2793 -23.2728
   -23.1680 -23.0997 -10.5050  -7.1453  -3.8768  -3.3870  -0.7183   0.5941
     1.4177   2.4440

          k = 0.1667 0.3849 0.0000 ( 20115 PWs)   bands (ev):

   -23.5574 -23.5324 -23.4923 -23.4102 -23.3693 -23.3104 -23.2846 -23.2725
   -23.1748 -23.0923 -10.3063  -7.4905  -4.0667  -3.2357  -0.9441   0.6349
     1.7919   2.3706

          k = 0.1667 0.4330 0.0000 ( 20139 PWs)   bands (ev):

   -23.5603 -23.5299 -23.4982 -23.4048 -23.3670 -23.3085 -23.2894 -23.2687
   -23.1822 -23.0862 -10.0938  -7.8248  -4.2170  -3.0666  -1.1792   0.6344
     2.1591   2.2608

          k = 0.1667 0.4811 0.0000 ( 20145 PWs)   bands (ev):

   -23.5625 -23.5270 -23.5034 -23.3996 -23.3676 -23.3066 -23.2936 -23.2631
   -23.1892 -23.0817  -9.8816  -8.1279  -4.3253  -2.8956  -1.4014   0.6233
     2.1505   2.5052

          k = 0.1667 0.5292 0.0000 ( 20147 PWs)   bands (ev):

   -23.5638 -23.5244 -23.5076 -23.3953 -23.3697 -23.3041 -23.2974 -23.2581
   -23.1948 -23.0789  -9.7033  -8.3625  -4.3906  -2.7533  -1.5760   0.6133
     2.0890   2.7982

          k = 0.1667 0.5774 0.0000 ( 20135 PWs)   bands (ev):

   -23.5642 -23.5231 -23.5093 -23.3935 -23.3708 -23.3015 -23.3003 -23.2560
   -23.1970 -23.0780  -9.6269  -8.4579  -4.4123  -2.6937  -1.6467   0.6094
     2.0679   2.9645

          k = 0.2083 0.3608 0.0000 ( 20119 PWs)   bands (ev):

   -23.5582 -23.5322 -23.4919 -23.4107 -23.3655 -23.3134 -23.2843 -23.2725
   -23.1763 -23.0912 -10.3173  -7.4620  -4.1075  -3.2414  -0.9142   0.9271
     1.5388   2.4134

          k = 0.2083 0.4090 0.0000 ( 20133 PWs)   bands (ev):

   -23.5620 -23.5297 -23.4975 -23.4054 -23.3587 -23.3145 -23.2891 -23.2692
   -23.1854 -23.0839 -10.1110  -7.7793  -4.3013  -3.0713  -1.1338   1.0839
     1.8557   2.2416

          k = 0.2083 0.4571 0.0000 ( 20137 PWs)   bands (ev):

   -23.5650 -23.5268 -23.5027 -23.3998 -23.3556 -23.3144 -23.2936 -23.2639
   -23.1945 -23.0781  -9.8943  -8.0839  -4.4501  -2.8889  -1.3590   1.1299
     2.0676   2.2805

          k = 0.2083 0.5052 0.0000 ( 20163 PWs)   bands (ev):

   -23.5671 -23.5240 -23.5071 -23.3948 -23.3560 -23.3117 -23.2981 -23.2581
   -23.2027 -23.0741  -9.6864  -8.3526  -4.5503  -2.7139  -1.5653   1.1453
     1.9605   2.6508

          k = 0.2083 0.5533 0.0000 ( 20157 PWs)   bands (ev):

   -23.5682 -23.5218 -23.5101 -23.3916 -23.3576 -23.3074 -23.3027 -23.2540
   -23.2081 -23.0721  -9.5381  -8.5320  -4.6007  -2.5907  -1.7048   1.1512
     1.9012   2.9394

          k = 0.2500 0.4330 0.0000 ( 20149 PWs)   bands (ev):

   -23.5659 -23.5268 -23.5024 -23.3999 -23.3495 -23.3189 -23.2936 -23.2641
   -23.1964 -23.0769  -9.8988  -8.0676  -4.4938  -2.8877  -1.3429   1.4491
     2.0238   2.0856

          k = 0.2500 0.4811 0.0000 ( 20153 PWs)   bands (ev):

   -23.5689 -23.5238 -23.5068 -23.3945 -23.3442 -23.3201 -23.2985 -23.2582
   -23.2070 -23.0717  -9.6791  -8.3436  -4.6354  -2.6962  -1.5555   1.6090
     1.9397   2.3930

          k = 0.2500 0.5292 0.0000 ( 20133 PWs)   bands (ev):

   -23.5708 -23.5211 -23.5104 -23.3904 -23.3439 -23.3161 -23.3039 -23.2525
   -23.2158 -23.0684  -9.4779  -8.5793  -4.7216  -2.5222  -1.7433   1.6752
     1.8263   2.7964

          k = 0.2500 0.5774 0.0000 ( 20123 PWs)   bands (ev):

   -23.5715 -23.5197 -23.5120 -23.3887 -23.3445 -23.3101 -23.3097 -23.2498
   -23.2197 -23.0673  -9.3795  -8.6893  -4.7505  -2.4384  -1.8319   1.7213
     1.7585   3.0108

          k = 0.2917 0.5052 0.0000 ( 20137 PWs)   bands (ev):

   -23.5717 -23.5209 -23.5104 -23.3900 -23.3346 -23.3235 -23.3043 -23.2519
   -23.2186 -23.0672  -9.4564  -8.5957  -4.7632  -2.4979  -1.7569   1.7261
     2.1251   2.5586

          k = 0.2917 0.5533 0.0000 ( 20132 PWs)   bands (ev):

   -23.5732 -23.5185 -23.5132 -23.3872 -23.3319 -23.3192 -23.3113 -23.2459
   -23.2277 -23.0648  -9.2596  -8.8073  -4.8283  -2.3250  -1.9315   1.6828
     2.2613   2.8543

          k = 0.3333 0.5774 0.0000 ( 20133 PWs)   bands (ev):

   -23.5740 -23.5159 -23.5159 -23.3861 -23.3222 -23.3199 -23.3198 -23.2377
   -23.2377 -23.0636  -9.0350  -9.0349  -4.8645  -2.1267  -2.1266   1.6497
     2.6905   2.6905

     the Fermi energy is    -2.1482 ev

!    total energy              =    -326.41854728 Ry
     estimated scf accuracy    <       0.00000082 Ry
     smearing contrib. (-TS)   =       0.00050388 Ry
     internal energy E=F+TS    =    -326.41905116 Ry

     The total energy is F=E-TS. E is the sum of the following terms:
     one-electron contribution =    -856.46870316 Ry
     hartree contribution      =     435.93672273 Ry
     xc contribution           =     -95.00853604 Ry
     ewald contribution        =     189.12146532 Ry

     convergence has been achieved in   7 iterations

     Writing output data file ../tmp/stanene.save/

     init_run     :     35.22s CPU     50.69s WALL (       1 calls)
     electrons    :    282.38s CPU    291.71s WALL (       1 calls)

     Called by init_run:
     wfcinit      :     33.33s CPU     47.58s WALL (       1 calls)
     potinit      :      0.62s CPU      0.99s WALL (       1 calls)
     hinit0       :      0.55s CPU      0.86s WALL (       1 calls)

     Called by electrons:
     c_bands      :    243.57s CPU    249.99s WALL (       7 calls)
     sum_band     :     31.53s CPU     33.49s WALL (       7 calls)
     v_of_rho     :      2.45s CPU      2.78s WALL (       8 calls)
     newd         :      4.90s CPU      6.17s WALL (       8 calls)
     mix_rho      :      0.35s CPU      0.36s WALL (       7 calls)

     Called by c_bands:
     init_us_2    :      1.20s CPU      1.21s WALL (     915 calls)
     cegterg      :    237.45s CPU    243.84s WALL (     427 calls)

     Called by *egterg:
     cdiaghg      :      5.24s CPU      5.76s WALL (    2277 calls)
     h_psi        :    175.28s CPU    191.13s WALL (    2338 calls)
     s_psi        :      7.08s CPU      7.53s WALL (    2338 calls)
     g_psi        :      0.47s CPU      0.50s WALL (    1850 calls)

     Called by h_psi:
     h_psi:calbec :     18.39s CPU     19.49s WALL (    2338 calls)
     vloc_psi     :    149.11s CPU    163.78s WALL (    2338 calls)
     add_vuspsi   :      7.41s CPU      7.51s WALL (    2338 calls)

     General routines
     calbec       :     22.95s CPU     24.16s WALL (    2765 calls)
     fft          :      2.66s CPU      2.87s WALL (     102 calls)
     ffts         :      0.07s CPU      0.10s WALL (      15 calls)
     fftw         :    160.57s CPU    175.30s WALL (   54400 calls)
     interpolate  :      0.21s CPU      0.24s WALL (       8 calls)

     Parallel routines
     fft_scatt_xy :      8.85s CPU      9.26s WALL (   54517 calls)
     fft_scatt_yz :    122.96s CPU    136.08s WALL (   54517 calls)

     PWSCF        :   5m24.03s CPU   5m50.87s WALL


   This run was terminated on:   0:22: 2  24Jan2024            

=------------------------------------------------------------------------------=
   JOB DONE.
=------------------------------------------------------------------------------=
